 Gaussian 16, Revision A.03,
 Gaussian 16:  ES64L-G16RevA.03 25-Dec-2016

 ----------------------------------------------------------------------
 #p opt freq=noraman ub3lyp jul-cc-pvdz scrf=(pcm,solvent=water) pop=cm
 5
 ----------------------------------------------------------------------

 -----
 title
 -----
 Symbolic Z-matrix:
 Charge =  0 Multiplicity = 1

 SCF Done:  E(UB3LYP) =  -1039.28782947     A.U. after   14 cycles
 SCF Done:  E(UB3LYP) =  -1039.28803179     A.U. after   15 cycles
 SCF Done:  E(UB3LYP) =  -1039.28775321     A.U. after   14 cycles
 SCF Done:  E(UB3LYP) =  -1039.28852022     A.U. after   12 cycles
 SCF Done:  E(UB3LYP) =  -1039.28849494     A.U. after   11 cycles
 SCF Done:  E(UB3LYP) =  -1039.28860369     A.U. after   11 cycles
 SCF Done:  E(UB3LYP) =  -1039.28861711     A.U. after   10 cycles
 SCF Done:  E(UB3LYP) =  -1039.28861990     A.U. after   10 cycles
 SCF Done:  E(UB3LYP) =  -1039.28862104     A.U. after   10 cycles
 SCF Done:  E(UB3LYP) =  -1039.28862122     A.U. after    8 cycles
 SCF Done:  E(UB3LYP) =  -1039.28862136     A.U. after    8 cycles
 SCF Done:  E(UB3LYP) =  -1039.28862139     A.U. after    7 cycles
 SCF Done:  E(UB3LYP) =  -1039.28862143     A.U. after    8 cycles
 Optimization completed.
    -- Stationary point found.
 Normal termination of Gaussian 16 at Mon Jun 28 13:29:35 2021.

 ----------------------------------------------------------------------
 #P Geom=AllCheck Guess=TCheck SCRF=Check GenChk UB3LYP/Jul-CC-pVDZ Fre
 q
 ----------------------------------------------------------------------

 Structure from the checkpoint file:  "/scratch/kwaneu.3001801.bmbhpcps002/Gau-25459.chk"
 -----
 title
 -----
 Charge =  0 Multiplicity = 1

                         Standard orientation:
 ---------------------------------------------------------------------
 Center     Atomic      Atomic             Coordinates (Angstroms)
 Number     Number       Type             X           Y           Z
 ---------------------------------------------------------------------
      1          6           0       -3.898027   -1.140372   -1.066035
      2          6           0       -3.155864   -1.275800    0.121833
      3          6           0       -3.687829   -2.049015    1.172278
      4          6           0       -4.928115   -2.669834    1.039982
      5          6           0       -5.658522   -2.528854   -0.148257
      6          6           0       -5.141577   -1.764230   -1.198838
      7          6           0       -1.820233   -0.630893    0.320464
      8          6           0       -1.284187    0.321150   -0.766223
      9          6           0        0.218620    0.633475   -0.602821
     10          6           0        1.120970   -0.554651   -0.987520
     11          6           0        2.580176   -0.203900   -0.914972
     12          6           0        3.471149   -0.816093   -0.114585
     13          8           0       -1.164453   -0.844734    1.331334
     14          1           0       -3.112568   -2.151024    2.092111
     15          1           0       -5.329647   -3.264307    1.861661
     16          1           0       -6.629377   -3.015535   -0.253807
     17          1           0       -5.705598   -1.653854   -2.125653
     18          1           0       -3.516707   -0.553897   -1.900608
     19          1           0       -1.444141   -0.135235   -1.750600
     20          6           0       -2.080857    1.624509   -0.789080
     21          1           0        0.463597    1.490779   -1.247545
     22          1           0        0.416437    0.936794    0.432972
     23          1           0        0.910757   -1.414972   -0.337079
     24          1           0        0.873089   -0.857146   -2.019869
     25          1           0        2.903025    0.614362   -1.567281
     26          8           0       -2.244212    2.129229    0.440927
     27          8           0       -2.484527    2.159673   -1.805277
     28          6           0       -2.948455    3.403992    0.547616
     29          6           0       -3.014507    3.768915    2.015442
     30          1           0       -2.395999    4.148029   -0.040621
     31          1           0       -3.945305    3.279724    0.105226
     32          1           0       -3.541314    4.727436    2.123046
     33          1           0       -3.561855    3.007266    2.587679
     34          1           0       -2.007536    3.877839    2.441257
     35          6           0        4.911892   -0.530069    0.013384
     36          6           0        5.674246   -1.275129    0.934449
     37          6           0        5.576968    0.457932   -0.743430
     38          6           0        7.043893   -1.047102    1.099516
     39          1           0        5.180795   -2.046054    1.530743
     40          6           0        6.943486    0.687676   -0.580691
     41          1           0        5.023126    1.054663   -1.469171
     42          6           0        7.686360   -0.062969    0.341850
     43          1           0        7.608386   -1.640041    1.821217
     44          1           0        7.435218    1.457508   -1.178145
     45          1           0        8.754982    0.119384    0.465718
     46          1           0        3.108639   -1.627480    0.526701
 ---------------------------------------------------------------------

 SCF Done:  E(UB3LYP) =  -1039.28862143     A.U. after    2 cycles

 The electronic state is 1-A.
 Alpha  occ. eigenvalues --  -19.20691 -19.15552 -19.15456 -10.33428 -10.29509
 Alpha  occ. eigenvalues --  -10.25080 -10.22002 -10.21479 -10.21270 -10.21082
 Alpha  occ. eigenvalues --  -10.20851 -10.20671 -10.20652 -10.20618 -10.19907
 Alpha  occ. eigenvalues --  -10.19766 -10.19723 -10.19627 -10.19581 -10.19579
 Alpha  occ. eigenvalues --  -10.19570 -10.19446 -10.19318 -10.18817  -1.12391
 Alpha  occ. eigenvalues --   -1.06317  -1.03689  -0.87571  -0.86628  -0.83427
 Alpha  occ. eigenvalues --   -0.80703  -0.78096  -0.77857  -0.76479  -0.75455
 Alpha  occ. eigenvalues --   -0.75208  -0.70902  -0.66024  -0.65256  -0.62902
 Alpha  occ. eigenvalues --   -0.61913  -0.61183  -0.59737  -0.58393  -0.56451
 Alpha  occ. eigenvalues --   -0.55697  -0.53984  -0.52071  -0.50537  -0.50396
 Alpha  occ. eigenvalues --   -0.49809  -0.48442  -0.47491  -0.46915  -0.46761
 Alpha  occ. eigenvalues --   -0.45523  -0.45292  -0.44215  -0.43802  -0.43152
 Alpha  occ. eigenvalues --   -0.42861  -0.42375  -0.41733  -0.41159  -0.40474
 Alpha  occ. eigenvalues --   -0.39678  -0.38616  -0.38252  -0.37690  -0.37397
 Alpha  occ. eigenvalues --   -0.37229  -0.36788  -0.36355  -0.35911  -0.35487
 Alpha  occ. eigenvalues --   -0.35030  -0.34247  -0.34003  -0.32058  -0.30554
 Alpha  occ. eigenvalues --   -0.29909  -0.27550  -0.27264  -0.27062  -0.26320
 Alpha  occ. eigenvalues --   -0.22938
 Alpha virt. eigenvalues --   -0.08162  -0.04919  -0.03194  -0.02124  -0.01271
 Alpha virt. eigenvalues --   -0.00460   0.00003   0.00464   0.00875   0.01155
 Alpha virt. eigenvalues --    0.01526   0.01734   0.02296   0.02755   0.02898

  Beta  occ. eigenvalues --  -19.20691 -19.15552 -19.15456 -10.33428 -10.29509
  Beta  occ. eigenvalues --  -10.25080 -10.22002 -10.21479 -10.21270 -10.21082
  Beta  occ. eigenvalues --  -10.20851 -10.20671 -10.20652 -10.20618 -10.19907
  Beta  occ. eigenvalues --  -10.19766 -10.19723 -10.19627 -10.19581 -10.19579
  Beta  occ. eigenvalues --  -10.19570 -10.19446 -10.19318 -10.18817  -1.12391
  Beta  occ. eigenvalues --   -1.06317  -1.03689  -0.87571  -0.86628  -0.83427
  Beta  occ. eigenvalues --   -0.80703  -0.78096  -0.77857  -0.76479  -0.75455
  Beta  occ. eigenvalues --   -0.75208  -0.70902  -0.66024  -0.65256  -0.62902
  Beta  occ. eigenvalues --   -0.61913  -0.61183  -0.59737  -0.58393  -0.56451
  Beta  occ. eigenvalues --   -0.55697  -0.53984  -0.52071  -0.50537  -0.50396
  Beta  occ. eigenvalues --   -0.49809  -0.48442  -0.47491  -0.46915  -0.46761
  Beta  occ. eigenvalues --   -0.45523  -0.45292  -0.44215  -0.43802  -0.43152
  Beta  occ. eigenvalues --   -0.42861  -0.42375  -0.41733  -0.41159  -0.40474
  Beta  occ. eigenvalues --   -0.39678  -0.38616  -0.38252  -0.37690  -0.37397
  Beta  occ. eigenvalues --   -0.37229  -0.36788  -0.36355  -0.35911  -0.35487
  Beta  occ. eigenvalues --   -0.35030  -0.34247  -0.34003  -0.32058  -0.30554
  Beta  occ. eigenvalues --   -0.29909  -0.27550  -0.27264  -0.27062  -0.26320
  Beta  occ. eigenvalues --   -0.22938
  Beta virt. eigenvalues --   -0.08162  -0.04919  -0.03194  -0.02124  -0.01271
  Beta virt. eigenvalues --   -0.00460   0.00003   0.00464   0.00875   0.01155
  Beta virt. eigenvalues --    0.01526   0.01734   0.02296   0.02755   0.02898

 Mulliken charges and spin densities:
               1          2
     1  C    0.051480   0.000000
     2  C    2.027421   0.000000
     3  C   -0.502051   0.000000
     4  C   -0.020567   0.000000
     5  C    0.257208   0.000000
     6  C   -0.267110   0.000000
     7  C    0.282002   0.000000
     8  C   -0.106862   0.000000
     9  C    0.200882   0.000000
    10  C    0.025502   0.000000
    11  C   -0.021388   0.000000
    12  C   -0.022504   0.000000
    13  O   -0.721528   0.000000
    14  H   -0.180634   0.000000
    15  H   -0.155827   0.000000
    16  H   -0.158946   0.000000
    17  H   -0.153798   0.000000
    18  H   -0.176522   0.000000
    19  H   -0.138155   0.000000
    20  C    0.647690   0.000000
    21  H   -0.094394   0.000000
    22  H   -0.053274   0.000000
    23  H   -0.098316   0.000000
    24  H   -0.061800   0.000000
    25  H   -0.208601   0.000000
    26  O   -0.663438   0.000000
    27  O   -0.651330   0.000000
    28  C    0.465802   0.000000
    29  C    0.073602   0.000000
    30  H   -0.042273   0.000000
    31  H   -0.042433   0.000000
    32  H   -0.004606   0.000000
    33  H    0.021992   0.000000
    34  H    0.021792   0.000000
    35  C    1.801096   0.000000
    36  C   -0.243596   0.000000
    37  C    0.242395   0.000000
    38  C   -0.162509   0.000000
    39  H   -0.167320   0.000000
    40  C   -0.336962   0.000000
    41  H   -0.183490   0.000000
    42  C    0.184384   0.000000
    43  H   -0.165575   0.000000
    44  H   -0.154962   0.000000
    45  H   -0.174678   0.000000
    46  H   -0.167800   0.000000
 Sum of Mulliken charges =  -0.00000   0.00000

 Dipole moment (field-independent basis, Debye):
    X=             -3.0628    Y=              0.1042    Z=             -0.3371  Tot=              3.0831
 Quadrupole moment (field-independent basis, Debye-Ang):
   XX=           -118.3371   YY=           -132.6252   ZZ=           -145.8660
   XY=              8.3815   XZ=             -3.5568   YZ=              3.6426

  Exact polarizability: 471.026  28.775 315.196  46.266 -45.466 336.715
 Approx polarizability: 495.566  31.016 348.236  62.056 -64.177 400.735

                      1                      2                      3
                      A                      A                      A
 Frequencies --     14.4761                17.5051                20.6883
 Red. masses --      4.2371                 5.4373                 4.5044
 Frc consts  --      0.0005                 0.0010                 0.0011
 IR Inten    --      1.4322                 0.7791                 0.5035

                      4                      5                      6
                      A                      A                      A
 Frequencies --     21.3036                32.5500                43.1662
 Red. masses --      4.2008                 3.9119                 4.6837
 Frc consts  --      0.0011                 0.0024                 0.0051
 IR Inten    --      0.3785                 0.1569                 1.0238

                      7                      8                      9
                      A                      A                      A
 Frequencies --     65.0216                68.7116                82.5361
 Red. masses --      3.5628                 3.9126                 3.0329
 Frc consts  --      0.0089                 0.0109                 0.0122
 IR Inten    --      0.6093                 1.3950                 0.4361

                     10                     11                     12
                      A                      A                      A
 Frequencies --     96.7603               103.5964               133.5930
 Red. masses --      3.9193                 5.7834                 3.6376
 Frc consts  --      0.0216                 0.0366                 0.0383
 IR Inten    --      1.1607                 2.9737                 0.2270

                     13                     14                     15
                      A                      A                      A
 Frequencies --    148.1607               157.3248               182.3317
 Red. masses --      2.8129                 3.7583                 3.2566
 Frc consts  --      0.0364                 0.0548                 0.0638
 IR Inten    --      1.2160                 1.9215                 5.7217

                     16                     17                     18
                      A                      A                      A
 Frequencies --    200.7458               232.7347               248.2138
 Red. masses --      2.3845                 4.4181                 2.4972
 Frc consts  --      0.0566                 0.1410                 0.0906
 IR Inten    --      9.0322                 4.6497                 1.4655

                     19                     20                     21
                      A                      A                      A
 Frequencies --    261.2103               295.6229               320.3842
 Red. masses --      1.5487                 3.8595                 4.3199
 Frc consts  --      0.0623                 0.1987                 0.2613
 IR Inten    --      1.6871                15.6910                 1.0534

                     22                     23                     24
                      A                      A                      A
 Frequencies --    356.0614               377.0936               391.5449
 Red. masses --      5.2169                 3.9063                 4.0401
 Frc consts  --      0.3897                 0.3273                 0.3649
 IR Inten    --      5.7371                16.0879                 0.7480

                     25                     26                     27
                      A                      A                      A
 Frequencies --    409.0863               412.8476               416.4220
 Red. masses --      2.8213                 2.8428                 4.7980
 Frc consts  --      0.2782                 0.2855                 0.4902
 IR Inten    --      0.1512                 0.0104                 9.2850

                     28                     29                     30
                      A                      A                      A
 Frequencies --    439.6600               473.7464               501.9402
 Red. masses --      4.0754                 4.1327                 4.3826
 Frc consts  --      0.4642                 0.5465                 0.6506
 IR Inten    --      0.5668                 2.3223                 8.3366

                     31                     32                     33
                      A                      A                      A
 Frequencies --    535.0458               597.3871               623.6499
 Red. masses --      3.3999                 4.9330                 6.1847
 Frc consts  --      0.5734                 1.0372                 1.4173
 IR Inten    --     17.3696                14.9322                 0.6019

                     34                     35                     36
                      A                      A                      A
 Frequencies --    626.0770               626.9949               670.2100
 Red. masses --      4.7874                 6.2620                 3.6537
 Frc consts  --      1.1056                 1.4504                 0.9670
 IR Inten    --     12.8626                 1.3493                24.2355

                     37                     38                     39
                      A                      A                      A
 Frequencies --    693.6378               699.6176               726.3530
 Red. masses --      1.6652                 1.5741                 2.1178
 Frc consts  --      0.4720                 0.4539                 0.6583
 IR Inten    --     77.0092                75.3317                 5.8297

                     40                     41                     42
                      A                      A                      A
 Frequencies --    734.7231               746.4112               768.2700
 Red. masses --      2.6786                 2.1539                 2.7975
 Frc consts  --      0.8519                 0.7070                 0.9729
 IR Inten    --     24.0858                49.7402                15.6541

                     43                     44                     45
                      A                      A                      A
 Frequencies --    799.8297               809.0514               824.6174
 Red. masses --      2.6730                 1.1274                 3.1410
 Frc consts  --      1.0075                 0.4348                 1.2584
 IR Inten    --     28.2480                 0.9384                 2.0409

                     46                     47                     48
                      A                      A                      A
 Frequencies --    839.5888               845.6627               849.4445
 Red. masses --      1.2831                 1.2883                 3.1599
 Frc consts  --      0.5329                 0.5428                 1.3434
 IR Inten    --      0.0046                 1.1300                16.5773

                     49                     50                     51
                      A                      A                      A
 Frequencies --    856.2209               882.3871               925.0392
 Red. masses --      1.9406                 2.7072                 1.5839
 Frc consts  --      0.8382                 1.2419                 0.7986
 IR Inten    --      1.3429                 6.2656                 2.9178

                     52                     53                     54
                      A                      A                      A
 Frequencies --    943.4009               949.7293               971.0320
 Red. masses --      2.4355                 2.1296                 3.6475
 Frc consts  --      1.2771                 1.1317                 2.0263
 IR Inten    --     33.5593                49.9684                42.8978

                     55                     56                     57
                      A                      A                      A
 Frequencies --    980.5227               985.7356               992.0464
 Red. masses --      1.3775                 1.1594                 1.3874
 Frc consts  --      0.7803                 0.6637                 0.8045
 IR Inten    --      0.0330                47.8307                 0.7870

                     58                     59                     60
                      A                      A                      A
 Frequencies --    994.3194               996.2067               998.6249
 Red. masses --      5.6293                 5.0070                 1.2989
 Frc consts  --      3.2791                 2.9277                 0.7632
 IR Inten    --      0.3339                 1.2287                 6.8020

                     61                     62                     63
                      A                      A                      A
 Frequencies --   1009.9403              1012.2474              1032.5423
 Red. masses --      1.8963                 1.4637                 3.0735
 Frc consts  --      1.1396                 0.8836                 1.9306
 IR Inten    --     18.9247                 5.1967                58.0173

                     64                     65                     66
                      A                      A                      A
 Frequencies --   1043.8678              1044.9931              1049.1359
 Red. masses --      2.3861                 2.2170                 2.9432
 Frc consts  --      1.5319                 1.4264                 1.9087
 IR Inten    --     34.7277                17.9618                77.0202

                     67                     68                     69
                      A                      A                      A
 Frequencies --   1078.5144              1091.2086              1102.3998
 Red. masses --      2.3517                 1.8263                 1.7029
 Frc consts  --      1.6117                 1.2812                 1.2193
 IR Inten    --     17.4362                15.1736                 9.1915

                     70                     71                     72
                      A                      A                      A
 Frequencies --   1110.0343              1128.2064              1164.3116
 Red. masses --      2.0271                 2.1683                 1.0812
 Frc consts  --      1.4716                 1.6261                 0.8635
 IR Inten    --      6.6696                12.0477                 0.1465

                     73                     74                     75
                      A                      A                      A
 Frequencies --   1165.5868              1167.4029              1174.8189
 Red. masses --      1.5388                 1.1064                 1.3065
 Frc consts  --      1.2318                 0.8884                 1.0625
 IR Inten    --      8.3693                12.0577                22.3822

                     76                     77                     78
                      A                      A                      A
 Frequencies --   1190.2186              1190.6222              1214.0148
 Red. masses --      1.1273                 1.1573                 2.1639
 Frc consts  --      0.9409                 0.9666                 1.8791
 IR Inten    --      4.5924                48.8731               348.3370

                     79                     80                     81
                      A                      A                      A
 Frequencies --   1226.0532              1235.3229              1262.4789
 Red. masses --      2.1494                 2.3674                 1.7881
 Frc consts  --      1.9036                 2.1285                 1.6792
 IR Inten    --     11.4155               201.9100               195.8982

                     82                     83                     84
                      A                      A                      A
 Frequencies --   1281.6022              1293.7028              1305.0032
 Red. masses --      1.1020                 1.8445                 1.2080
 Frc consts  --      1.0664                 1.8189                 1.2121
 IR Inten    --      2.8140               194.3178                 7.8456

                     85                     86                     87
                      A                      A                      A
 Frequencies --   1317.5870              1327.1762              1329.5293
 Red. masses --      1.9599                 1.4392                 1.3390
 Frc consts  --      2.0046                 1.4935                 1.3945
 IR Inten    --     17.1035                 0.3791                 4.6164

                     88                     89                     90
                      A                      A                      A
 Frequencies --   1351.5236              1358.1063              1358.4955
 Red. masses --      1.5152                 3.0333                 2.1895
 Frc consts  --      1.6306                 3.2963                 2.3808
 IR Inten    --      1.8140                39.9139                 8.0360

                     91                     92                     93
                      A                      A                      A
 Frequencies --   1362.3827              1375.7509              1379.7621
 Red. masses --      1.8333                 1.3495                 1.4832
 Frc consts  --      2.0048                 1.5049                 1.6636
 IR Inten    --     32.4885                 7.9515                 4.5144

                     94                     95                     96
                      A                      A                      A
 Frequencies --   1406.4780              1456.5836              1465.7736
 Red. masses --      1.4250                 1.0930                 1.0404
 Frc consts  --      1.6609                 1.3663                 1.3169
 IR Inten    --     10.9657                 9.7553                 7.7818

                     97                     98                     99
                      A                      A                      A
 Frequencies --   1466.6558              1468.2140              1473.9824
 Red. masses --      2.2919                 2.0595                 1.0548
 Frc consts  --      2.9048                 2.6157                 1.3502
 IR Inten    --     27.5722                15.7902                 2.8024

                    100                    101                    102
                      A                      A                      A
 Frequencies --   1475.9688              1499.5411              1513.3208
 Red. masses --      1.1516                 1.0867                 2.2181
 Frc consts  --      1.4781                 1.4398                 2.9930
 IR Inten    --     11.1506                13.3668                 4.1652

                    103                    104                    105
                      A                      A                      A
 Frequencies --   1516.9124              1613.0108              1616.0817
 Red. masses --      2.3015                 5.5273                 5.6643
 Frc consts  --      3.1202                 8.4730                 8.7161
 IR Inten    --     21.3796                 1.2513                34.5304

                    106                    107                    108
                      A                      A                      A
 Frequencies --   1635.0221              1639.2419              1703.3409
 Red. masses --      5.7937                 5.8609                11.2936
 Frc consts  --      9.1254                 9.2789                19.3057
 IR Inten    --     82.8739                17.4713               786.3783

                    109                    110                    111
                      A                      A                      A
 Frequencies --   1706.9374              1737.4710              3001.9795
 Red. masses --      6.0722                11.4381                 1.0672
 Frc consts  --     10.4239                20.3441                 5.6663
 IR Inten    --     38.1643               215.7824                51.2129

                    112                    113                    114
                      A                      A                      A
 Frequencies --   3040.0649              3043.5491              3065.1123
 Red. masses --      1.0351                 1.0651                 1.0577
 Frc consts  --      5.6363                 5.8129                 5.8548
 IR Inten    --     21.7269                34.6590                27.2607

                    115                    116                    117
                      A                      A                      A
 Frequencies --   3079.5322              3089.8956              3108.2957
 Red. masses --      1.0914                 1.0852                 1.1060
 Frc consts  --      6.0985                 6.1047                 6.2960
 IR Inten    --     19.5062                10.6841                 0.0381

                    118                    119                    120
                      A                      A                      A
 Frequencies --   3109.2262              3119.1622              3121.7541
 Red. masses --      1.0992                 1.1015                 1.0901
 Frc consts  --      6.2610                 6.3141                 6.2590
 IR Inten    --     30.3489                32.6843                17.1309

                    121                    122                    123
                      A                      A                      A
 Frequencies --   3129.8164              3132.9052              3160.5381
 Red. masses --      1.1078                 1.0871                 1.0861
 Frc consts  --      6.3935                 6.2866                 6.3919
 IR Inten    --     62.7738                48.7260                12.9744

                    124                    125                    126
                      A                      A                      A
 Frequencies --   3167.9217              3175.0380              3177.4210
 Red. masses --      1.0867                 1.0855                 1.0912
 Frc consts  --      6.4253                 6.4472                 6.4910
 IR Inten    --      0.5548                 0.2969                20.8695

                    127                    128                    129
                      A                      A                      A
 Frequencies --   3185.5348              3185.8153              3194.1709
 Red. masses --      1.0897                 1.0939                 1.0987
 Frc consts  --      6.5148                 6.5416                 6.6047
 IR Inten    --     11.4772                48.8682                22.8672

                    130                    131                    132
                      A                      A                      A
 Frequencies --   3194.8991              3205.2848              3208.4054
 Red. masses --      1.0940                 1.0938                 1.0953
 Frc consts  --      6.5792                 6.6210                 6.6427
 IR Inten    --     20.1284                15.6508                 6.0463

 - Thermochemistry -
 -------------------
 Temperature   298.150 Kelvin.  Pressure   1.00000 Atm.
 Atom     1 has atomic number  6 and mass  12.00000

 Molecular mass:   322.15689 amu.
 Principal axes and moments of inertia in atomic units:
                           1         2         3
     Eigenvalues --  4657.80871********************
           X            0.99999  -0.00266  -0.00212
           Y            0.00270   0.99982   0.01866
           Z            0.00207  -0.01867   0.99982
 This molecule is an asymmetric top.
 Rotational symmetry number  1.
 Warning -- assumption of classical behavior for rotation
           may cause significant error
 Rotational temperatures (Kelvin)      0.01860     0.00409     0.00369
 Rotational constants (GHZ):           0.38747     0.08520     0.07686
 Zero-point vibrational energy     993153.4 (Joules/Mol)
                                  237.36935 (Kcal/Mol)
 Warning -- explicit consideration of  32 degrees of freedom as
           vibrations may cause significant error
 Vibrational temperatures:     20.83    25.19    29.77    30.65    46.83
          (Kelvin)             62.11    93.55    98.86   118.75   139.22
                              149.05   192.21   213.17   226.36   262.33
                              288.83   334.85   357.12   375.82   425.34
                              460.96   512.29   542.55   563.35   588.58
                              594.00   599.14   632.57   681.62   722.18
                              769.81   859.51   897.29   900.79   902.11
                              964.28   997.99  1006.59  1045.06  1057.10
                             1073.92  1105.37  1150.78  1164.04  1186.44
                             1207.98  1216.72  1222.16  1231.91  1269.56
                             1330.93  1357.34  1366.45  1397.10  1410.75
                             1418.25  1427.33  1430.60  1433.32  1436.80
                             1453.08  1456.40  1485.60  1501.89  1503.51
                             1509.47  1551.74  1570.01  1586.11  1597.09
                             1623.24  1675.18  1677.02  1679.63  1690.30
                             1712.46  1713.04  1746.70  1764.02  1777.35
                             1816.43  1843.94  1861.35  1877.61  1895.71
                             1909.51  1912.90  1944.54  1954.01  1954.57
                             1960.16  1979.40  1985.17  2023.61  2095.70
                             2108.92  2110.19  2112.43  2120.73  2123.59
                             2157.51  2177.33  2182.50  2320.76  2325.18
                             2352.43  2358.50  2450.73  2455.90  2499.83
                             4319.18  4373.98  4378.99  4410.01  4430.76
                             4445.67  4472.14  4473.48  4487.78  4491.51
                             4503.11  4507.55  4547.31  4557.93  4568.17
                             4571.60  4583.27  4583.68  4595.70  4596.75
                             4611.69  4616.18

 Zero-point correction=                           0.378272 (Hartree/Particle)
 Thermal correction to Energy=                    0.401473
 Thermal correction to Enthalpy=                  0.402417
 Thermal correction to Gibbs Free Energy=         0.319885
 Sum of electronic and zero-point Energies=          -1038.910349
 Sum of electronic and thermal Energies=             -1038.887149
 Sum of electronic and thermal Enthalpies=           -1038.886205
 Sum of electronic and thermal Free Energies=        -1038.968737

                     E (Thermal)             CV                S
                      KCal/Mol        Cal/Mol-Kelvin    Cal/Mol-Kelvin
 Total                  251.928             86.257            173.704
 Electronic               0.000              0.000              0.000
 Translational            0.889              2.981             43.205
 Rotational               0.889              2.981             36.092
 Vibrational            250.150             80.295             94.407
 Vibration     1          0.593              1.986              7.276
 Vibration     2          0.593              1.986              6.899
 Vibration     3          0.593              1.986              6.567
 Vibration     4          0.593              1.985              6.509
 Vibration     5          0.594              1.983              5.668
 Vibration     6          0.595              1.980              5.108
 Vibration     7          0.597              1.971              4.299
 Vibration     8          0.598              1.969              4.190
 Vibration     9          0.600              1.961              3.830
 Vibration    10          0.603              1.951              3.519
 Vibration    11          0.605              1.946              3.385
 Vibration    12          0.613              1.920              2.894
 Vibration    13          0.618              1.905              2.696
 Vibration    14          0.621              1.894              2.582
 Vibration    15          0.630              1.864              2.304
 Vibration    16          0.638              1.839              2.126
 Vibration    17          0.653              1.791              1.858
 Vibration    18          0.662              1.766              1.743
 Vibration    19          0.669              1.744              1.654
 Vibration    20          0.690              1.682              1.442
 Vibration    21          0.706              1.635              1.308
 Vibration    22          0.732              1.563              1.139
 Vibration    23          0.748              1.519              1.051
 Vibration    24          0.759              1.488              0.994
 Vibration    25          0.773              1.450              0.930
 Vibration    26          0.777              1.442              0.917
 Vibration    27          0.780              1.435              0.904
 Vibration    28          0.800              1.384              0.828
 Vibration    29          0.831              1.308              0.727
 Vibration    30          0.857              1.246              0.653
 Vibration    31          0.890              1.173              0.576
 Vibration    32          0.955              1.037              0.454

                           ! Non-Optimized Parameters !
 Normal termination of Gaussian 16 at Mon Jun 28 16:12:48 2021.
