 Gaussian 16, Revision A.03,

 --------------------------------
 #t pop=none jul-cc-pvdz upbe1pbe
 --------------------------------
 ------------------------
 theory_abbreviation pbe0
 ------------------------
 Symbolic Z-matrix:
 Charge =  0 Multiplicity = 6

 SCF Done:  E(UPBE1PBE) =  -3033.10717438     A.U. after   21 cycles
 Normal termination of Gaussian 16 at Tue Feb 11 13:59:17 2020.

 ---------------------------------------------------------------------
 #t pop=none jul-cc-pvdz guess=read upbe1pbe empiricaldispersion=gd3bj
 ---------------------------------------------------------------------
 -----------------------------
 theory_abbreviation pbe0_d3bj
 -----------------------------
 Symbolic Z-matrix:
 Charge =  0 Multiplicity = 6

 SCF Done:  E(UPBE1PBE) =  -3033.14425865     A.U. after    1 cycles
 Normal termination of Gaussian 16 at Tue Feb 11 14:00:30 2020.

 -----------------------------------------
 #t pop=none jul-cc-pvdz guess=read ub3lyp
 -----------------------------------------
 -------------------------
 theory_abbreviation b3lyp
 -------------------------
 Symbolic Z-matrix:
 Charge =  0 Multiplicity = 6

 SCF Done:  E(UB3LYP) =  -3034.31987295     A.U. after   14 cycles
 Normal termination of Gaussian 16 at Tue Feb 11 14:15:27 2020.

 -------------------------------------------------------------------
 #t pop=none jul-cc-pvdz guess=read ub3lyp empiricaldispersion=gd3bj
 -------------------------------------------------------------------
 ------------------------------
 theory_abbreviation b3lyp_d3bj
 ------------------------------
 Symbolic Z-matrix:
 Charge =  0 Multiplicity = 6

 SCF Done:  E(UB3LYP) =  -3034.38901689     A.U. after    1 cycles
 Normal termination of Gaussian 16 at Tue Feb 11 14:16:38 2020.

 ----------------------------------------
 #t pop=none jul-cc-pvdz guess=read ub97d
 ----------------------------------------
 ------------------------
 theory_abbreviation b97d
 ------------------------
 Symbolic Z-matrix:
 Charge =  0 Multiplicity = 6

 SCF Done:  E(UB97D) =  -3034.57272387     A.U. after   17 cycles

 ----------------------------------------------------------------
 #t pop=none jul-cc-pvdz guess=read ub97d empiricaldispersion=gd3
 ----------------------------------------------------------------
 -------------------------
 theory_abbreviation b97d3
 -------------------------
 Symbolic Z-matrix:
 Charge =  0 Multiplicity = 6

 SCF Done:  E(UB97D) =  -3034.57266915     A.U. after    1 cycles
 SCF Done:  E(UBHandHLYP) =  -3033.96266675     A.U. after   17 cycles
 SCF Done:  E(UBHandH) =  -3026.31055848     A.U. after   16 cycles
 SCF Done:  E(ULC-wPBE) =  -3033.44788392     A.U. after   18 cycles
 SCF Done:  E(UB-P86) =  -3034.62534165     A.U. after   16 cycles
 SCF Done:  E(UmPW1LYP) =  -3034.03819186     A.U. after   15 cycles
 SCF Done:  E(UmPW1PBE) =  -3033.88149213     A.U. after   16 cycles
 SCF Done:  E(UmPW3PBE) =  -3033.65377339     A.U. after   15 cycles
 SCF Done:  E(UM11) =  -3033.80548948     A.U. after   19 cycles
 SCF Done:  E(UN12SX) =  -3033.24727561     A.U. after   17 cycles
 SCF Done:  E(UMN12SX) =  -3033.64541282     A.U. after   16 cycles
 SCF Done:  E(UB1B95) =  -3034.37523696     A.U. after   16 cycles
 Normal termination of Gaussian 16 at Tue Feb 11 23:07:46 2020.
 SCF Done:  E(UB3PW91) =  -3033.96908808     A.U. after   16 cycles
 Normal termination of Gaussian 16 at Tue Feb 11 23:24:14 2020.
 SCF Done:  E(UM06L) =  -3034.18765939     A.U. after   18 cycles
 Normal termination of Gaussian 16 at Tue Feb 11 23:44:05 2020.
 Gaussian 16:  ES64L-G16RevA.03 25-Dec-2016

                         Standard orientation:
 ---------------------------------------------------------------------
 Center     Atomic      Atomic             Coordinates (Angstroms)
 Number     Number       Type             X           Y           Z
 ---------------------------------------------------------------------
      1          8           0       -0.321292   -0.181644   -0.709530
      2          6           0       -1.267584   -1.100047   -0.552135
      3          6           0       -2.727478   -0.311478    0.373541
      4          6           0       -2.452188    0.975265   -0.100570
      5          6           0       -2.927360    1.449771   -1.425977
      6         26           0        1.396713    0.113441   -0.022316
      7         17           0        1.904642    2.123728   -0.767685
      8          6           0       -1.611065    1.931673    0.655737
      9         17           0        2.662322   -1.534290   -0.737487
     10         17           0        1.185758    0.091835    2.199049
     11          1           0       -3.550990   -0.811130   -0.135063
     12          1           0       -2.295763    2.653696    1.130659
     13          1           0       -1.016803    1.468528    1.441614
     14          1           0       -0.955520    2.498447   -0.013131
     15          1           0       -3.313394    2.472062   -1.330880
     16          1           0       -2.056628    1.515758   -2.094149
     17          1           0       -3.691276    0.812398   -1.872785
     18          6           0       -2.663748   -0.596159    1.867119
     19          1           0       -3.432310   -0.011432    2.385763
     20          1           0       -2.864979   -1.650604    2.064857
     21          1           0       -1.695366   -0.348507    2.306295
     22          6           0       -0.895069   -2.276561    0.338328
     23          1           0       -1.725403   -2.972729    0.478877
     24          1           0       -0.086938   -2.798802   -0.189628
     25          1           0       -0.501653   -1.957718    1.302970
     26          6           0       -1.861094   -1.555634   -1.880870
     27          1           0       -1.065580   -2.105856   -2.396281
     28          1           0       -2.716048   -2.223981   -1.747983
     29          1           0       -2.138297   -0.719061   -2.521648
 ---------------------------------------------------------------------

 SCF Done:  E(UB97D3) =  -3034.60712319     A.U. after   16 cycles
 Normal termination of Gaussian 16 at Tue Feb 11 23:56:43 2020.
