 Gaussian 16, Revision A.03,

 --------------------------------
 #t pop=none jul-cc-pvdz upbe1pbe
 --------------------------------
 ------------------------
 theory_abbreviation pbe0
 ------------------------
 Symbolic Z-matrix:
 Charge =  0 Multiplicity = 6

 SCF Done:  E(UPBE1PBE) =  -3033.13646672     A.U. after   19 cycles
 Normal termination of Gaussian 16 at Tue Feb 11 13:57:59 2020.

 ---------------------------------------------------------------------
 #t pop=none jul-cc-pvdz guess=read upbe1pbe empiricaldispersion=gd3bj
 ---------------------------------------------------------------------
 -----------------------------
 theory_abbreviation pbe0_d3bj
 -----------------------------
 Symbolic Z-matrix:
 Charge =  0 Multiplicity = 6

 SCF Done:  E(UPBE1PBE) =  -3033.17265490     A.U. after    1 cycles
 Normal termination of Gaussian 16 at Tue Feb 11 13:59:10 2020.

 -----------------------------------------
 #t pop=none jul-cc-pvdz guess=read ub3lyp
 -----------------------------------------
 -------------------------
 theory_abbreviation b3lyp
 -------------------------
 Symbolic Z-matrix:
 Charge =  0 Multiplicity = 6

 SCF Done:  E(UB3LYP) =  -3034.35502319     A.U. after   13 cycles
 Normal termination of Gaussian 16 at Tue Feb 11 14:12:43 2020.

 -------------------------------------------------------------------
 #t pop=none jul-cc-pvdz guess=read ub3lyp empiricaldispersion=gd3bj
 -------------------------------------------------------------------
 ------------------------------
 theory_abbreviation b3lyp_d3bj
 ------------------------------
 Symbolic Z-matrix:
 Charge =  0 Multiplicity = 6

 SCF Done:  E(UB3LYP) =  -3034.42199660     A.U. after    1 cycles
 Normal termination of Gaussian 16 at Tue Feb 11 14:13:53 2020.

 ----------------------------------------
 #t pop=none jul-cc-pvdz guess=read ub97d
 ----------------------------------------
 ------------------------
 theory_abbreviation b97d
 ------------------------
 Symbolic Z-matrix:
 Charge =  0 Multiplicity = 6

 SCF Done:  E(UB97D) =  -3034.60534427     A.U. after   15 cycles

 ----------------------------------------------------------------
 #t pop=none jul-cc-pvdz guess=read ub97d empiricaldispersion=gd3
 ----------------------------------------------------------------
 -------------------------
 theory_abbreviation b97d3
 -------------------------
 Symbolic Z-matrix:
 Charge =  0 Multiplicity = 6

 SCF Done:  E(UB97D) =  -3034.60660714     A.U. after    2 cycles
 SCF Done:  E(UBHandHLYP) =  -3033.99656507     A.U. after   16 cycles
 SCF Done:  E(UBHandH) =  -3026.33234722     A.U. after   14 cycles
 SCF Done:  E(ULC-wPBE) =  -3033.47706148     A.U. after   19 cycles
 SCF Done:  E(UB-P86) =  -3034.65419417     A.U. after   16 cycles
 SCF Done:  E(UmPW1LYP) =  -3034.07332655     A.U. after   13 cycles
 SCF Done:  E(UmPW1PBE) =  -3033.91096877     A.U. after   14 cycles
 SCF Done:  E(UmPW3PBE) =  -3033.68399211     A.U. after   13 cycles
 SCF Done:  E(UM11) =  -3033.83449509     A.U. after   17 cycles
 SCF Done:  E(UN12SX) =  -3033.27534634     A.U. after   16 cycles
 SCF Done:  E(UMN12SX) =  -3033.67724220     A.U. after   16 cycles
 SCF Done:  E(UB1B95) =  -3034.40677789     A.U. after   14 cycles
 Normal termination of Gaussian 16 at Tue Feb 11 22:26:39 2020.
 SCF Done:  E(UB3PW91) =  -3034.00024635     A.U. after   13 cycles
 Normal termination of Gaussian 16 at Tue Feb 11 22:39:59 2020.
 SCF Done:  E(UM06L) =  -3034.22191846     A.U. after   18 cycles
 Normal termination of Gaussian 16 at Tue Feb 11 23:01:48 2020.
 Gaussian 16:  ES64L-G16RevA.03 25-Dec-2016

                         Standard orientation:
 ---------------------------------------------------------------------
 Center     Atomic      Atomic             Coordinates (Angstroms)
 Number     Number       Type             X           Y           Z
 ---------------------------------------------------------------------
      1          8           0        0.152319    0.409169   -0.894212
      2          6           0        0.958102    1.348640   -0.689451
      3          6           0        3.035772    0.185176    0.583202
      4          6           0        2.738535   -0.912769   -0.143222
      5          6           0        3.299662   -1.117679   -1.523958
      6         26           0       -1.502007   -0.176380    0.002279
      7         17           0       -2.040603   -2.016443   -1.023158
      8          6           0        1.831375   -2.011587    0.328546
      9         17           0       -2.792987    1.551003   -0.361921
     10         17           0       -1.059245   -0.446633    2.134687
     11          1           0        3.740135    0.893639    0.146192
     12          1           0        2.366076   -2.970507    0.327799
     13          1           0        1.425567   -1.846492    1.326358
     14          1           0        0.988986   -2.130294   -0.366621
     15          1           0        3.885238   -2.045743   -1.557113
     16          1           0        2.494203   -1.237187   -2.261357
     17          1           0        3.951988   -0.297761   -1.837538
     18          6           0        2.734458    0.395608    2.044750
     19          1           0        3.518129   -0.068915    2.658601
     20          1           0        2.725298    1.458416    2.303787
     21          1           0        1.778664   -0.034447    2.352941
     22          6           0        0.776607    2.269356    0.476409
     23          1           0        1.664701    2.871453    0.670136
     24          1           0       -0.050151    2.941510    0.201318
     25          1           0        0.469896    1.731780    1.373964
     26          6           0        1.807788    1.799851   -1.839074
     27          1           0        1.228214    2.578844   -2.356340
     28          1           0        2.747345    2.246042   -1.511462
     29          1           0        1.983761    0.987856   -2.542769
 ---------------------------------------------------------------------

 SCF Done:  E(UB97D3) =  -3034.64152317     A.U. after   16 cycles
 Normal termination of Gaussian 16 at Tue Feb 11 23:14:30 2020.
