 Gaussian 16, Revision A.03,

 --------------------------------
 #t pop=none jul-cc-pvdz upbe1pbe
 --------------------------------
 ------------------------
 theory_abbreviation pbe0
 ------------------------
 Symbolic Z-matrix:
 Charge =  0 Multiplicity = 6

 SCF Done:  E(UPBE1PBE) =  -3033.11452757     A.U. after   20 cycles
 Normal termination of Gaussian 16 at Tue Feb 11 13:56:43 2020.

 ---------------------------------------------------------------------
 #t pop=none jul-cc-pvdz guess=read upbe1pbe empiricaldispersion=gd3bj
 ---------------------------------------------------------------------
 -----------------------------
 theory_abbreviation pbe0_d3bj
 -----------------------------
 Symbolic Z-matrix:
 Charge =  0 Multiplicity = 6

 SCF Done:  E(UPBE1PBE) =  -3033.15144089     A.U. after    1 cycles
 Normal termination of Gaussian 16 at Tue Feb 11 13:58:02 2020.

 -----------------------------------------
 #t pop=none jul-cc-pvdz guess=read ub3lyp
 -----------------------------------------
 -------------------------
 theory_abbreviation b3lyp
 -------------------------
 Symbolic Z-matrix:
 Charge =  0 Multiplicity = 6

 SCF Done:  E(UB3LYP) =  -3034.32765125     A.U. after   13 cycles
 Normal termination of Gaussian 16 at Tue Feb 11 14:11:41 2020.

 -------------------------------------------------------------------
 #t pop=none jul-cc-pvdz guess=read ub3lyp empiricaldispersion=gd3bj
 -------------------------------------------------------------------
 ------------------------------
 theory_abbreviation b3lyp_d3bj
 ------------------------------
 Symbolic Z-matrix:
 Charge =  0 Multiplicity = 6

 SCF Done:  E(UB3LYP) =  -3034.39632238     A.U. after    1 cycles
 Normal termination of Gaussian 16 at Tue Feb 11 14:12:53 2020.

 ----------------------------------------
 #t pop=none jul-cc-pvdz guess=read ub97d
 ----------------------------------------
 ------------------------
 theory_abbreviation b97d
 ------------------------
 Symbolic Z-matrix:
 Charge =  0 Multiplicity = 6

 SCF Done:  E(UB97D) =  -3034.57793223     A.U. after   16 cycles

 ----------------------------------------------------------------
 #t pop=none jul-cc-pvdz guess=read ub97d empiricaldispersion=gd3
 ----------------------------------------------------------------
 -------------------------
 theory_abbreviation b97d3
 -------------------------
 Symbolic Z-matrix:
 Charge =  0 Multiplicity = 6

 SCF Done:  E(UB97D) =  -3034.57890724     A.U. after    1 cycles
 SCF Done:  E(UBHandHLYP) =  -3033.96995115     A.U. after   16 cycles
 SCF Done:  E(UBHandH) =  -3026.31537172     A.U. after   14 cycles
 SCF Done:  E(ULC-wPBE) =  -3033.45941912     A.U. after   17 cycles
 SCF Done:  E(UB-P86) =  -3034.63418121     A.U. after   16 cycles
 SCF Done:  E(UmPW1LYP) =  -3034.04588160     A.U. after   14 cycles
 SCF Done:  E(UmPW1PBE) =  -3033.88902492     A.U. after   14 cycles
 SCF Done:  E(UmPW3PBE) =  -3033.66130974     A.U. after   14 cycles
 SCF Done:  E(UM11) =  -3033.80928048     A.U. after   16 cycles
 SCF Done:  E(UN12SX) =  -3033.25478447     A.U. after   16 cycles
 SCF Done:  E(UMN12SX) =  -3033.64981468     A.U. after   16 cycles
 SCF Done:  E(UB1B95) =  -3034.38034719     A.U. after   15 cycles
 Normal termination of Gaussian 16 at Tue Feb 11 23:02:40 2020.
 SCF Done:  E(UB3PW91) =  -3033.97672281     A.U. after   14 cycles
 Normal termination of Gaussian 16 at Tue Feb 11 23:17:39 2020.
 SCF Done:  E(UM06L) =  -3034.19111288     A.U. after   18 cycles
 Normal termination of Gaussian 16 at Tue Feb 11 23:38:07 2020.
 Gaussian 16:  ES64L-G16RevA.03 25-Dec-2016

                         Standard orientation:
 ---------------------------------------------------------------------
 Center     Atomic      Atomic             Coordinates (Angstroms)
 Number     Number       Type             X           Y           Z
 ---------------------------------------------------------------------
      1          8           0       -0.406408   -0.186854   -0.526836
      2          6           0       -1.422434   -1.204805   -0.360793
      3          6           0       -2.791019   -0.125277   -0.205585
      4          6           0       -1.955766    1.131491   -0.273959
      5          6           0       -1.864037    1.869464   -1.557923
      6         26           0        1.375691    0.040890    0.035322
      7         17           0        1.836588    2.018415   -0.843154
      8          6           0       -1.566310    1.853229    0.962257
      9         17           0        2.478549   -1.693218   -0.727820
     10         17           0        1.353720    0.150162    2.246277
     11          1           0       -3.380792   -0.225425   -1.120366
     12          1           0       -2.434618    2.463017    1.260321
     13          1           0       -1.329171    1.181740    1.787747
     14          1           0       -0.723061    2.523480    0.782498
     15          1           0       -2.663038    2.629096   -1.550991
     16          1           0       -0.904319    2.386081   -1.643639
     17          1           0       -2.020805    1.216751   -2.418014
     18          6           0       -3.664741   -0.320064    1.023224
     19          1           0       -4.452200    0.441340    1.074621
     20          1           0       -4.156250   -1.296300    0.972999
     21          1           0       -3.095686   -0.281768    1.954935
     22          6           0       -1.185705   -2.042143    0.876900
     23          1           0       -2.002839   -2.754379    1.029280
     24          1           0       -0.258397   -2.612119    0.744072
     25          1           0       -1.068477   -1.428447    1.771953
     26          6           0       -1.518262   -2.026420   -1.628889
     27          1           0       -0.570617   -2.555496   -1.781770
     28          1           0       -2.325845   -2.763500   -1.560094
     29          1           0       -1.691510   -1.386326   -2.498767
 ---------------------------------------------------------------------

 SCF Done:  E(UB97D3) =  -3034.61415485     A.U. after   16 cycles
 Normal termination of Gaussian 16 at Tue Feb 11 23:51:20 2020.
