 Gaussian 16, Revision A.03,

 --------------------------------
 #t pop=none jul-cc-pvdz upbe1pbe
 --------------------------------
 ------------------------
 theory_abbreviation pbe0
 ------------------------
 Symbolic Z-matrix:
 Charge =  0 Multiplicity = 6

 SCF Done:  E(UPBE1PBE) =  -3033.10851085     A.U. after   21 cycles
 Normal termination of Gaussian 16 at Tue Feb 11 20:05:00 2020.

 ---------------------------------------------------------------------
 #t pop=none jul-cc-pvdz guess=read upbe1pbe empiricaldispersion=gd3bj
 ---------------------------------------------------------------------
 -----------------------------
 theory_abbreviation pbe0_d3bj
 -----------------------------
 Symbolic Z-matrix:
 Charge =  0 Multiplicity = 6

 SCF Done:  E(UPBE1PBE) =  -3033.14472359     A.U. after    1 cycles
 Normal termination of Gaussian 16 at Tue Feb 11 20:06:07 2020.

 -----------------------------------------
 #t pop=none jul-cc-pvdz guess=read ub3lyp
 -----------------------------------------
 -------------------------
 theory_abbreviation b3lyp
 -------------------------
 Symbolic Z-matrix:
 Charge =  0 Multiplicity = 6

 SCF Done:  E(UB3LYP) =  -3034.31975088     A.U. after   15 cycles
 Normal termination of Gaussian 16 at Tue Feb 11 20:21:02 2020.

 -------------------------------------------------------------------
 #t pop=none jul-cc-pvdz guess=read ub3lyp empiricaldispersion=gd3bj
 -------------------------------------------------------------------
 ------------------------------
 theory_abbreviation b3lyp_d3bj
 ------------------------------
 Symbolic Z-matrix:
 Charge =  0 Multiplicity = 6

 SCF Done:  E(UB3LYP) =  -3034.38736612     A.U. after    1 cycles
 Normal termination of Gaussian 16 at Tue Feb 11 20:22:08 2020.

 ----------------------------------------
 #t pop=none jul-cc-pvdz guess=read ub97d
 ----------------------------------------
 ------------------------
 theory_abbreviation b97d
 ------------------------
 Symbolic Z-matrix:
 Charge =  0 Multiplicity = 6

 SCF Done:  E(UB97D) =  -3034.57173813     A.U. after   16 cycles

 ----------------------------------------------------------------
 #t pop=none jul-cc-pvdz guess=read ub97d empiricaldispersion=gd3
 ----------------------------------------------------------------
 -------------------------
 theory_abbreviation b97d3
 -------------------------
 Symbolic Z-matrix:
 Charge =  0 Multiplicity = 6

 SCF Done:  E(UB97D) =  -3034.57189327     A.U. after    3 cycles
 SCF Done:  E(UBHandHLYP) =  -3033.96190322     A.U. after   17 cycles
 SCF Done:  E(UBHandH) =  -3026.31222073     A.U. after   13 cycles
 SCF Done:  E(ULC-wPBE) =  -3033.44977722     A.U. after   17 cycles
 SCF Done:  E(UB-P86) =  -3034.62682116     A.U. after   17 cycles
 SCF Done:  E(UmPW1LYP) =  -3034.03748429     A.U. after   15 cycles
 SCF Done:  E(UmPW1PBE) =  -3033.88297024     A.U. after   15 cycles
 SCF Done:  E(UmPW3PBE) =  -3033.65527117     A.U. after   14 cycles
 SCF Done:  E(UM11) =  -3033.80173839     A.U. after   17 cycles
 SCF Done:  E(UN12SX) =  -3033.24782935     A.U. after   16 cycles
 SCF Done:  E(UMN12SX) =  -3033.64263662     A.U. after   16 cycles
 SCF Done:  E(UB1B95) =  -3034.37408490     A.U. after   16 cycles
 Normal termination of Gaussian 16 at Wed Feb 12 04:30:21 2020.
 SCF Done:  E(UB3PW91) =  -3033.97056646     A.U. after   15 cycles
 Normal termination of Gaussian 16 at Wed Feb 12 04:45:07 2020.
 SCF Done:  E(UM06L) =  -3034.18601968     A.U. after   17 cycles
 Normal termination of Gaussian 16 at Wed Feb 12 05:03:22 2020.
 Gaussian 16:  ES64L-G16RevA.03 25-Dec-2016

                         Standard orientation:
 ---------------------------------------------------------------------
 Center     Atomic      Atomic             Coordinates (Angstroms)
 Number     Number       Type             X           Y           Z
 ---------------------------------------------------------------------
      1          8           0       -0.305542   -0.092466   -0.420488
      2          6           0       -1.282967   -1.037495   -0.225498
      3          6           0       -2.453138   -0.435475    0.684599
      4          6           0       -3.017135    0.698098   -0.039993
      5          6           0       -4.261624    0.562787   -0.829474
      6         26           0        1.508789    0.171232   -0.085755
      7         17           0        1.784338    2.249708   -0.779645
      8          6           0       -2.226509    1.902738   -0.125340
      9         17           0        2.580715   -1.385129   -1.215665
     10         17           0        1.826830   -0.006486    2.102407
     11          1           0       -3.199838   -1.233292    0.751339
     12          1           0       -2.642275    2.703940   -0.735600
     13          1           0       -1.853715    2.265437    0.837490
     14          1           0       -1.266385    1.474877   -0.569750
     15          1           0       -5.061342    1.047543   -0.243963
     16          1           0       -4.204586    1.109754   -1.776893
     17          1           0       -4.552769   -0.475712   -0.995801
     18          6           0       -1.922939   -0.070001    2.087725
     19          1           0       -2.632353    0.574715    2.615596
     20          1           0       -1.795305   -0.977168    2.680135
     21          1           0       -0.954420    0.429445    2.031469
     22          6           0       -0.731910   -2.264014    0.532391
     23          1           0       -1.526214   -2.980277    0.766389
     24          1           0        0.001881   -2.748256   -0.118456
     25          1           0       -0.219890   -1.970797    1.449638
     26          6           0       -1.824626   -1.480239   -1.597094
     27          1           0       -1.014291   -1.975601   -2.137980
     28          1           0       -2.662121   -2.181325   -1.505451
     29          1           0       -2.137483   -0.621565   -2.199172
 ---------------------------------------------------------------------

 SCF Done:  E(UB97D3) =  -3034.60691370     A.U. after   16 cycles
 Normal termination of Gaussian 16 at Wed Feb 12 05:15:51 2020.
