 Gaussian 16, Revision A.03,

 --------------------------------
 #t pop=none jul-cc-pvdz upbe1pbe
 --------------------------------
 ------------------------
 theory_abbreviation pbe0
 ------------------------
 Symbolic Z-matrix:
 Charge =  0 Multiplicity = 6

 SCF Done:  E(UPBE1PBE) =  -3033.12771818     A.U. after   21 cycles
 Normal termination of Gaussian 16 at Tue Feb 11 14:00:00 2020.

 ---------------------------------------------------------------------
 #t pop=none jul-cc-pvdz guess=read upbe1pbe empiricaldispersion=gd3bj
 ---------------------------------------------------------------------
 -----------------------------
 theory_abbreviation pbe0_d3bj
 -----------------------------
 Symbolic Z-matrix:
 Charge =  0 Multiplicity = 6

 SCF Done:  E(UPBE1PBE) =  -3033.16454967     A.U. after    1 cycles
 Normal termination of Gaussian 16 at Tue Feb 11 14:01:10 2020.

 -----------------------------------------
 #t pop=none jul-cc-pvdz guess=read ub3lyp
 -----------------------------------------
 -------------------------
 theory_abbreviation b3lyp
 -------------------------
 Symbolic Z-matrix:
 Charge =  0 Multiplicity = 6

 SCF Done:  E(UB3LYP) =  -3034.34497053     A.U. after   13 cycles
 Normal termination of Gaussian 16 at Tue Feb 11 14:14:56 2020.

 -------------------------------------------------------------------
 #t pop=none jul-cc-pvdz guess=read ub3lyp empiricaldispersion=gd3bj
 -------------------------------------------------------------------
 ------------------------------
 theory_abbreviation b3lyp_d3bj
 ------------------------------
 Symbolic Z-matrix:
 Charge =  0 Multiplicity = 6

 SCF Done:  E(UB3LYP) =  -3034.41337495     A.U. after    1 cycles
 Normal termination of Gaussian 16 at Tue Feb 11 14:16:06 2020.

 ----------------------------------------
 #t pop=none jul-cc-pvdz guess=read ub97d
 ----------------------------------------
 ------------------------
 theory_abbreviation b97d
 ------------------------
 Symbolic Z-matrix:
 Charge =  0 Multiplicity = 6

 SCF Done:  E(UB97D) =  -3034.59754739     A.U. after   15 cycles

 ----------------------------------------------------------------
 #t pop=none jul-cc-pvdz guess=read ub97d empiricaldispersion=gd3
 ----------------------------------------------------------------
 -------------------------
 theory_abbreviation b97d3
 -------------------------
 Symbolic Z-matrix:
 Charge =  0 Multiplicity = 6

 SCF Done:  E(UB97D) =  -3034.59851655     A.U. after    1 cycles
 SCF Done:  E(UBHandHLYP) =  -3033.98550916     A.U. after   18 cycles
 SCF Done:  E(UBHandH) =  -3026.32505914     A.U. after   16 cycles
 SCF Done:  E(ULC-wPBE) =  -3033.46721010     A.U. after   19 cycles
 SCF Done:  E(UB-P86) =  -3034.64744976     A.U. after   16 cycles
 SCF Done:  E(UmPW1LYP) =  -3034.06306808     A.U. after   14 cycles
 SCF Done:  E(UmPW1PBE) =  -3033.90220989     A.U. after   14 cycles
 SCF Done:  E(UmPW3PBE) =  -3033.67525513     A.U. after   13 cycles
 SCF Done:  E(UM11) =  -3033.82470614     A.U. after   17 cycles
 SCF Done:  E(UN12SX) =  -3033.26654710     A.U. after   17 cycles
 SCF Done:  E(UMN12SX) =  -3033.66716315     A.U. after   16 cycles
 SCF Done:  E(UB1B95) =  -3034.39736015     A.U. after   14 cycles
 Normal termination of Gaussian 16 at Tue Feb 11 22:49:33 2020.
 SCF Done:  E(UB3PW91) =  -3033.99123375     A.U. after   15 cycles
 Normal termination of Gaussian 16 at Tue Feb 11 23:06:37 2020.
 SCF Done:  E(UM06L) =  -3034.21225973     A.U. after   18 cycles
 Normal termination of Gaussian 16 at Tue Feb 11 23:26:20 2020.
 Gaussian 16:  ES64L-G16RevA.03 25-Dec-2016

                         Standard orientation:
 ---------------------------------------------------------------------
 Center     Atomic      Atomic             Coordinates (Angstroms)
 Number     Number       Type             X           Y           Z
 ---------------------------------------------------------------------
      1          8           0        0.211232    0.323841   -0.828605
      2          6           0        1.066349    1.239744   -0.640939
      3          6           0        2.879111    0.272977    0.599729
      4          6           0        2.733978   -0.894440   -0.079283
      5          6           0        3.420827   -1.137159   -1.391569
      6         26           0       -1.487763   -0.165296   -0.018945
      7         17           0       -2.015665   -2.041949   -0.995409
      8          6           0        1.833887   -1.999885    0.375701
      9         17           0       -2.739833    1.563126   -0.505297
     10         17           0       -1.163084   -0.379172    2.146280
     11          1           0        3.594062    0.989015    0.196305
     12          1           0        2.365972   -2.959093    0.363527
     13          1           0        1.413386   -1.843558    1.368700
     14          1           0        0.999092   -2.101064   -0.333111
     15          1           0        4.063141   -2.023695   -1.309846
     16          1           0        2.690986   -1.359385   -2.181827
     17          1           0        4.045127   -0.296273   -1.703533
     18          6           0        2.526096    0.465565    2.056473
     19          1           0        3.257545   -0.062732    2.681637
     20          1           0        2.568917    1.519280    2.341576
     21          1           0        1.536309    0.085081    2.316585
     22          6           0        0.809841    2.281066    0.412367
     23          1           0        1.688418    2.892754    0.620515
     24          1           0        0.025994    2.927739   -0.008653
     25          1           0        0.413075    1.849486    1.330837
     26          6           0        1.870876    1.658744   -1.843069
     27          1           0        1.231079    2.360482   -2.396801
     28          1           0        2.791005    2.180634   -1.577223
     29          1           0        2.077969    0.814552   -2.498502
 ---------------------------------------------------------------------

 SCF Done:  E(UB97D3) =  -3034.63380221     A.U. after   15 cycles
 Normal termination of Gaussian 16 at Tue Feb 11 23:37:59 2020.
