 Gaussian 16, Revision A.03,

 --------------------------------
 #t pop=none jul-cc-pvdz upbe1pbe
 --------------------------------
 ------------------------
 theory_abbreviation pbe0
 ------------------------
 Symbolic Z-matrix:
 Charge =  0 Multiplicity = 6

 SCF Done:  E(UPBE1PBE) =  -3033.11873701     A.U. after   20 cycles
 Normal termination of Gaussian 16 at Tue Feb 11 14:46:01 2020.

 ---------------------------------------------------------------------
 #t pop=none jul-cc-pvdz guess=read upbe1pbe empiricaldispersion=gd3bj
 ---------------------------------------------------------------------
 -----------------------------
 theory_abbreviation pbe0_d3bj
 -----------------------------
 Symbolic Z-matrix:
 Charge =  0 Multiplicity = 6

 SCF Done:  E(UPBE1PBE) =  -3033.15637012     A.U. after    1 cycles
 Normal termination of Gaussian 16 at Tue Feb 11 14:47:12 2020.

 -----------------------------------------
 #t pop=none jul-cc-pvdz guess=read ub3lyp
 -----------------------------------------
 -------------------------
 theory_abbreviation b3lyp
 -------------------------
 Symbolic Z-matrix:
 Charge =  0 Multiplicity = 6

 SCF Done:  E(UB3LYP) =  -3034.33394330     A.U. after   13 cycles
 Normal termination of Gaussian 16 at Tue Feb 11 15:01:08 2020.

 -------------------------------------------------------------------
 #t pop=none jul-cc-pvdz guess=read ub3lyp empiricaldispersion=gd3bj
 -------------------------------------------------------------------
 ------------------------------
 theory_abbreviation b3lyp_d3bj
 ------------------------------
 Symbolic Z-matrix:
 Charge =  0 Multiplicity = 6

 SCF Done:  E(UB3LYP) =  -3034.40406627     A.U. after    1 cycles
 Normal termination of Gaussian 16 at Tue Feb 11 15:02:18 2020.

 ----------------------------------------
 #t pop=none jul-cc-pvdz guess=read ub97d
 ----------------------------------------
 ------------------------
 theory_abbreviation b97d
 ------------------------
 Symbolic Z-matrix:
 Charge =  0 Multiplicity = 6

 SCF Done:  E(UB97D) =  -3034.58802415     A.U. after   15 cycles

 ----------------------------------------------------------------
 #t pop=none jul-cc-pvdz guess=read ub97d empiricaldispersion=gd3
 ----------------------------------------------------------------
 -------------------------
 theory_abbreviation b97d3
 -------------------------
 Symbolic Z-matrix:
 Charge =  0 Multiplicity = 6

 SCF Done:  E(UB97D) =  -3034.58905291     A.U. after    1 cycles
 SCF Done:  E(UBHandHLYP) =  -3033.97468738     A.U. after   18 cycles
 SCF Done:  E(UBHandH) =  -3026.31878657     A.U. after   16 cycles
 SCF Done:  E(ULC-wPBE) =  -3033.45854628     A.U. after   19 cycles
 SCF Done:  E(UB-P86) =  -3034.63960742     A.U. after   17 cycles
 SCF Done:  E(UmPW1LYP) =  -3034.05202695     A.U. after   15 cycles
 SCF Done:  E(UmPW1PBE) =  -3033.89311743     A.U. after   15 cycles
 SCF Done:  E(UmPW3PBE) =  -3033.66595191     A.U. after   12 cycles
 SCF Done:  E(UM11) =  -3033.81660502     A.U. after   19 cycles
 SCF Done:  E(UN12SX) =  -3033.25800357     A.U. after   17 cycles
 SCF Done:  E(UMN12SX) =  -3033.65783871     A.U. after   16 cycles
 SCF Done:  E(UB1B95) =  -3034.38814148     A.U. after   15 cycles
 Normal termination of Gaussian 16 at Tue Feb 11 23:54:40 2020.
 SCF Done:  E(UB3PW91) =  -3033.98157746     A.U. after   15 cycles
 Normal termination of Gaussian 16 at Wed Feb 12 00:11:34 2020.
 SCF Done:  E(UM06L) =  -3034.20196572     A.U. after   18 cycles
 Normal termination of Gaussian 16 at Wed Feb 12 00:31:43 2020.
 Gaussian 16:  ES64L-G16RevA.03 25-Dec-2016

                         Standard orientation:
 ---------------------------------------------------------------------
 Center     Atomic      Atomic             Coordinates (Angstroms)
 Number     Number       Type             X           Y           Z
 ---------------------------------------------------------------------
      1          8           0       -0.286037   -0.221334   -0.779994
      2          6           0       -1.165982   -1.140763   -0.619231
      3          6           0       -2.840400   -0.252427    0.497547
      4          6           0       -2.561980    0.948606   -0.091618
      5          6           0       -3.119256    1.325074   -1.429300
      6         26           0        1.439034    0.132255   -0.010832
      7         17           0        2.017198    2.060904   -0.865456
      8          6           0       -1.658808    1.967667    0.517242
      9         17           0        2.643720   -1.589953   -0.634178
     10         17           0        1.174993    0.209528    2.182002
     11          1           0       -3.598035   -0.866416    0.013946
     12          1           0       -2.219847    2.897997    0.678516
     13          1           0       -1.216054    1.659565    1.462741
     14          1           0       -0.849645    2.212804   -0.182713
     15          1           0       -3.638528    2.288184   -1.345892
     16          1           0       -2.305138    1.476118   -2.150605
     17          1           0       -3.824387    0.589269   -1.821356
     18          6           0       -2.637717   -0.525692    1.971694
     19          1           0       -3.393591    0.021789    2.548728
     20          1           0       -2.766276   -1.585923    2.199990
     21          1           0       -1.655680   -0.216956    2.336058
     22          6           0       -0.879053   -2.244479    0.369843
     23          1           0       -1.742486   -2.889733    0.539220
     24          1           0       -0.082696   -2.843232   -0.094570
     25          1           0       -0.490355   -1.866602    1.314585
     26          6           0       -1.884438   -1.576749   -1.877107
     27          1           0       -1.178165   -2.232660   -2.403648
     28          1           0       -2.790486   -2.149866   -1.672081
     29          1           0       -2.099898   -0.737856   -2.536033
 ---------------------------------------------------------------------

 SCF Done:  E(UB97D3) =  -3034.62438885     A.U. after   15 cycles
 Normal termination of Gaussian 16 at Wed Feb 12 00:43:57 2020.
