 Gaussian 16, Revision A.03,

 --------------------------------
 #t pop=none jul-cc-pvdz upbe1pbe
 --------------------------------
 ------------------------
 theory_abbreviation pbe0
 ------------------------
 Symbolic Z-matrix:
 Charge =  0 Multiplicity = 6

 SCF Done:  E(UPBE1PBE) =  -3033.13131552     A.U. after   19 cycles
 Normal termination of Gaussian 16 at Tue Feb 11 13:54:12 2020.

 ---------------------------------------------------------------------
 #t pop=none jul-cc-pvdz guess=read upbe1pbe empiricaldispersion=gd3bj
 ---------------------------------------------------------------------
 -----------------------------
 theory_abbreviation pbe0_d3bj
 -----------------------------
 Symbolic Z-matrix:
 Charge =  0 Multiplicity = 6

 SCF Done:  E(UPBE1PBE) =  -3033.16830947     A.U. after    1 cycles
 Normal termination of Gaussian 16 at Tue Feb 11 13:55:28 2020.

 -----------------------------------------
 #t pop=none jul-cc-pvdz guess=read ub3lyp
 -----------------------------------------
 -------------------------
 theory_abbreviation b3lyp
 -------------------------
 Symbolic Z-matrix:
 Charge =  0 Multiplicity = 6

 SCF Done:  E(UB3LYP) =  -3034.34284822     A.U. after   13 cycles
 Normal termination of Gaussian 16 at Tue Feb 11 14:08:57 2020.

 -------------------------------------------------------------------
 #t pop=none jul-cc-pvdz guess=read ub3lyp empiricaldispersion=gd3bj
 -------------------------------------------------------------------
 ------------------------------
 theory_abbreviation b3lyp_d3bj
 ------------------------------
 Symbolic Z-matrix:
 Charge =  0 Multiplicity = 6

 SCF Done:  E(UB3LYP) =  -3034.41173362     A.U. after    1 cycles
 Normal termination of Gaussian 16 at Tue Feb 11 14:10:06 2020.

 ----------------------------------------
 #t pop=none jul-cc-pvdz guess=read ub97d
 ----------------------------------------
 ------------------------
 theory_abbreviation b97d
 ------------------------
 Symbolic Z-matrix:
 Charge =  0 Multiplicity = 6

 SCF Done:  E(UB97D) =  -3034.59222583     A.U. after   16 cycles

 ----------------------------------------------------------------
 #t pop=none jul-cc-pvdz guess=read ub97d empiricaldispersion=gd3
 ----------------------------------------------------------------
 -------------------------
 theory_abbreviation b97d3
 -------------------------
 Symbolic Z-matrix:
 Charge =  0 Multiplicity = 6

 SCF Done:  E(UB97D) =  -3034.59289886     A.U. after    1 cycles
 SCF Done:  E(UBHandHLYP) =  -3033.98643769     A.U. after   16 cycles
 SCF Done:  E(UBHandH) =  -3026.33373632     A.U. after   14 cycles
 SCF Done:  E(ULC-wPBE) =  -3033.47867832     A.U. after   17 cycles
 SCF Done:  E(UB-P86) =  -3034.64898240     A.U. after   16 cycles
 SCF Done:  E(UmPW1LYP) =  -3034.06118315     A.U. after   14 cycles
 SCF Done:  E(UmPW1PBE) =  -3033.90572178     A.U. after   14 cycles
 SCF Done:  E(UmPW3PBE) =  -3033.67762499     A.U. after   14 cycles
 SCF Done:  E(UM11) =  -3033.82632793     A.U. after   16 cycles
 SCF Done:  E(UN12SX) =  -3033.27180653     A.U. after   16 cycles
 SCF Done:  E(UMN12SX) =  -3033.66598474     A.U. after   16 cycles
 SCF Done:  E(UB1B95) =  -3034.39745130     A.U. after   14 cycles
 Normal termination of Gaussian 16 at Tue Feb 11 22:09:34 2020.
 SCF Done:  E(UB3PW91) =  -3033.99292625     A.U. after   14 cycles
 Normal termination of Gaussian 16 at Tue Feb 11 22:23:45 2020.
 SCF Done:  E(UM06L) =  -3034.20692500     A.U. after   17 cycles
 Normal termination of Gaussian 16 at Tue Feb 11 22:42:18 2020.
 Gaussian 16:  ES64L-G16RevA.03 25-Dec-2016

                         Standard orientation:
 ---------------------------------------------------------------------
 Center     Atomic      Atomic             Coordinates (Angstroms)
 Number     Number       Type             X           Y           Z
 ---------------------------------------------------------------------
      1          8           0       -0.439691   -0.149139   -0.512001
      2          6           0       -1.493981   -1.156181   -0.317301
      3          6           0       -2.719443   -0.128788   -0.265241
      4          6           0       -1.872225    1.149029   -0.256886
      5          6           0       -1.800342    1.968059   -1.497114
      6         26           0        1.375155    0.026097    0.027905
      7         17           0        1.894488    1.973805   -0.865789
      8          6           0       -1.548271    1.829916    1.026761
      9         17           0        2.377432   -1.753672   -0.760097
     10         17           0        1.412601    0.136400    2.231228
     11          1           0       -3.251904   -0.179813   -1.220491
     12          1           0       -2.418286    2.447966    1.296432
     13          1           0       -1.360334    1.132310    1.842666
     14          1           0       -0.686370    2.491571    0.912421
     15          1           0       -2.636795    2.684077   -1.470094
     16          1           0       -0.866074    2.534131   -1.537676
     17          1           0       -1.901676    1.354823   -2.394052
     18          6           0       -3.728884   -0.279708    0.868859
     19          1           0       -4.490887    0.506151    0.820268
     20          1           0       -4.243544   -1.241534    0.780166
     21          1           0       -3.262077   -0.240520    1.855814
     22          6           0       -1.253027   -1.942216    0.961399
     23          1           0       -2.071589   -2.647701    1.137858
     24          1           0       -0.326212   -2.516888    0.863638
     25          1           0       -1.149747   -1.292954    1.832911
     26          6           0       -1.522721   -2.059524   -1.538695
     27          1           0       -0.576669   -2.604240   -1.617573
     28          1           0       -2.340464   -2.785397   -1.461492
     29          1           0       -1.657372   -1.471987   -2.451802
 ---------------------------------------------------------------------

 SCF Done:  E(UB97D3) =  -3034.62832435     A.U. after   15 cycles
 Normal termination of Gaussian 16 at Tue Feb 11 22:55:41 2020.
