 Gaussian 16, Revision A.03,

 --------------------------------
 #t pop=none jul-cc-pvdz upbe1pbe
 --------------------------------
 ------------------------
 theory_abbreviation pbe0
 ------------------------
 Symbolic Z-matrix:
 Charge =  0 Multiplicity = 6

 SCF Done:  E(UPBE1PBE) =  -3033.11492830     A.U. after   21 cycles
 Normal termination of Gaussian 16 at Tue Feb 11 13:58:49 2020.

 ---------------------------------------------------------------------
 #t pop=none jul-cc-pvdz guess=read upbe1pbe empiricaldispersion=gd3bj
 ---------------------------------------------------------------------
 -----------------------------
 theory_abbreviation pbe0_d3bj
 -----------------------------
 Symbolic Z-matrix:
 Charge =  0 Multiplicity = 6

 SCF Done:  E(UPBE1PBE) =  -3033.15096223     A.U. after    1 cycles
 Normal termination of Gaussian 16 at Tue Feb 11 13:59:58 2020.

 -----------------------------------------
 #t pop=none jul-cc-pvdz guess=read ub3lyp
 -----------------------------------------
 -------------------------
 theory_abbreviation b3lyp
 -------------------------
 Symbolic Z-matrix:
 Charge =  0 Multiplicity = 6

 SCF Done:  E(UB3LYP) =  -3034.32895572     A.U. after   13 cycles
 Normal termination of Gaussian 16 at Tue Feb 11 14:13:32 2020.

 -------------------------------------------------------------------
 #t pop=none jul-cc-pvdz guess=read ub3lyp empiricaldispersion=gd3bj
 -------------------------------------------------------------------
 ------------------------------
 theory_abbreviation b3lyp_d3bj
 ------------------------------
 Symbolic Z-matrix:
 Charge =  0 Multiplicity = 6

 SCF Done:  E(UB3LYP) =  -3034.39614315     A.U. after    1 cycles
 Normal termination of Gaussian 16 at Tue Feb 11 14:14:42 2020.

 ----------------------------------------
 #t pop=none jul-cc-pvdz guess=read ub97d
 ----------------------------------------
 ------------------------
 theory_abbreviation b97d
 ------------------------
 Symbolic Z-matrix:
 Charge =  0 Multiplicity = 6

 SCF Done:  E(UB97D) =  -3034.58147715     A.U. after   17 cycles

 ----------------------------------------------------------------
 #t pop=none jul-cc-pvdz guess=read ub97d empiricaldispersion=gd3
 ----------------------------------------------------------------
 -------------------------
 theory_abbreviation b97d3
 -------------------------
 Symbolic Z-matrix:
 Charge =  0 Multiplicity = 6

 SCF Done:  E(UB97D) =  -3034.58182891     A.U. after    1 cycles
 SCF Done:  E(UBHandHLYP) =  -3033.96861604     A.U. after   17 cycles
 SCF Done:  E(UBHandH) =  -3026.31460146     A.U. after   16 cycles
 SCF Done:  E(ULC-wPBE) =  -3033.45243484     A.U. after   18 cycles
 SCF Done:  E(UB-P86) =  -3034.63364956     A.U. after   16 cycles
 SCF Done:  E(UmPW1LYP) =  -3034.04662600     A.U. after   15 cycles
 SCF Done:  E(UmPW1PBE) =  -3033.88947411     A.U. after   16 cycles
 SCF Done:  E(UmPW3PBE) =  -3033.66227311     A.U. after   15 cycles
 SCF Done:  E(UM11) =  -3033.81041383     A.U. after   19 cycles
 SCF Done:  E(UN12SX) =  -3033.25445571     A.U. after   17 cycles
 SCF Done:  E(UMN12SX) =  -3033.65040300     A.U. after   17 cycles
 SCF Done:  E(UB1B95) =  -3034.38243160     A.U. after   16 cycles
 Normal termination of Gaussian 16 at Tue Feb 11 22:57:12 2020.
 SCF Done:  E(UB3PW91) =  -3033.97783747     A.U. after   15 cycles
 Normal termination of Gaussian 16 at Tue Feb 11 23:12:24 2020.
 SCF Done:  E(UM06L) =  -3034.19435525     A.U. after   16 cycles
 Normal termination of Gaussian 16 at Tue Feb 11 23:29:53 2020.
 Gaussian 16:  ES64L-G16RevA.03 25-Dec-2016

                         Standard orientation:
 ---------------------------------------------------------------------
 Center     Atomic      Atomic             Coordinates (Angstroms)
 Number     Number       Type             X           Y           Z
 ---------------------------------------------------------------------
      1          8           0       -0.326234   -0.142983   -0.459980
      2          6           0       -1.190341   -1.105662   -0.271747
      3          6           0       -2.624293   -0.328096    0.796746
      4          6           0       -2.962383    0.713013   -0.062513
      5          6           0       -4.016347    0.559433   -1.106436
      6         26           0        1.504375    0.175193   -0.087907
      7         17           0        1.819570    2.173686   -0.940295
      8          6           0       -2.215088    1.986365   -0.035349
      9         17           0        2.544235   -1.488907   -1.078414
     10         17           0        1.774162    0.145829    2.103835
     11          1           0       -3.312884   -1.173055    0.781723
     12          1           0       -2.660013    2.757556   -0.667214
     13          1           0       -2.060077    2.366861    0.978377
     14          1           0       -1.204348    1.747878   -0.422232
     15          1           0       -4.841228    1.242150   -0.855243
     16          1           0       -3.650728    0.876754   -2.090988
     17          1           0       -4.417239   -0.453636   -1.168722
     18          6           0       -2.002030   -0.016769    2.148912
     19          1           0       -2.629453    0.698403    2.692801
     20          1           0       -1.927054   -0.917881    2.759272
     21          1           0       -1.001084    0.410794    2.056270
     22          6           0       -0.753203   -2.223824    0.670050
     23          1           0       -1.575926   -2.893358    0.932960
     24          1           0        0.001437   -2.797882    0.117604
     25          1           0       -0.275203   -1.838441    1.569771
     26          6           0       -1.816481   -1.626271   -1.557044
     27          1           0       -1.053383   -2.242478   -2.046567
     28          1           0       -2.695606   -2.250539   -1.375120
     29          1           0       -2.065525   -0.813759   -2.240141
 ---------------------------------------------------------------------

 SCF Done:  E(UB97D3) =  -3034.61609091     A.U. after   17 cycles
 Normal termination of Gaussian 16 at Tue Feb 11 23:43:17 2020.
