 Gaussian 16, Revision A.03,

 --------------------------------
 #t pop=none jul-cc-pvdz upbe1pbe
 --------------------------------
 ------------------------
 theory_abbreviation pbe0
 ------------------------
 Symbolic Z-matrix:
 Charge =  0 Multiplicity = 6

 SCF Done:  E(UPBE1PBE) =  -3033.11337163     A.U. after   21 cycles
 Normal termination of Gaussian 16 at Tue Feb 11 13:59:04 2020.

 ---------------------------------------------------------------------
 #t pop=none jul-cc-pvdz guess=read upbe1pbe empiricaldispersion=gd3bj
 ---------------------------------------------------------------------
 -----------------------------
 theory_abbreviation pbe0_d3bj
 -----------------------------
 Symbolic Z-matrix:
 Charge =  0 Multiplicity = 6

 SCF Done:  E(UPBE1PBE) =  -3033.14965085     A.U. after    1 cycles
 Normal termination of Gaussian 16 at Tue Feb 11 14:00:14 2020.

 -----------------------------------------
 #t pop=none jul-cc-pvdz guess=read ub3lyp
 -----------------------------------------
 -------------------------
 theory_abbreviation b3lyp
 -------------------------
 Symbolic Z-matrix:
 Charge =  0 Multiplicity = 6

 SCF Done:  E(UB3LYP) =  -3034.32705668     A.U. after   13 cycles
 Normal termination of Gaussian 16 at Tue Feb 11 14:13:54 2020.

 -------------------------------------------------------------------
 #t pop=none jul-cc-pvdz guess=read ub3lyp empiricaldispersion=gd3bj
 -------------------------------------------------------------------
 ------------------------------
 theory_abbreviation b3lyp_d3bj
 ------------------------------
 Symbolic Z-matrix:
 Charge =  0 Multiplicity = 6

 SCF Done:  E(UB3LYP) =  -3034.39468587     A.U. after    1 cycles
 Normal termination of Gaussian 16 at Tue Feb 11 14:15:04 2020.

 ----------------------------------------
 #t pop=none jul-cc-pvdz guess=read ub97d
 ----------------------------------------
 ------------------------
 theory_abbreviation b97d
 ------------------------
 Symbolic Z-matrix:
 Charge =  0 Multiplicity = 6

 SCF Done:  E(UB97D) =  -3034.57954939     A.U. after   17 cycles

 ----------------------------------------------------------------
 #t pop=none jul-cc-pvdz guess=read ub97d empiricaldispersion=gd3
 ----------------------------------------------------------------
 -------------------------
 theory_abbreviation b97d3
 -------------------------
 Symbolic Z-matrix:
 Charge =  0 Multiplicity = 6

 SCF Done:  E(UB97D) =  -3034.58004197     A.U. after    1 cycles
 SCF Done:  E(UBHandHLYP) =  -3033.96721729     A.U. after   17 cycles
 SCF Done:  E(UBHandH) =  -3026.31393827     A.U. after   16 cycles
 SCF Done:  E(ULC-wPBE) =  -3033.45146627     A.U. after   18 cycles
 SCF Done:  E(UB-P86) =  -3034.63202885     A.U. after   16 cycles
 SCF Done:  E(UmPW1LYP) =  -3034.04482808     A.U. after   15 cycles
 SCF Done:  E(UmPW1PBE) =  -3033.88786390     A.U. after   16 cycles
 SCF Done:  E(UmPW3PBE) =  -3033.66057713     A.U. after   15 cycles
 SCF Done:  E(UM11) =  -3033.80928390     A.U. after   19 cycles
 SCF Done:  E(UN12SX) =  -3033.25294060     A.U. after   17 cycles
 SCF Done:  E(UMN12SX) =  -3033.64915710     A.U. after   17 cycles
 SCF Done:  E(UB1B95) =  -3034.38089713     A.U. after   16 cycles
 Normal termination of Gaussian 16 at Tue Feb 11 22:59:45 2020.
 SCF Done:  E(UB3PW91) =  -3033.97607342     A.U. after   15 cycles
 Normal termination of Gaussian 16 at Tue Feb 11 23:15:07 2020.
 SCF Done:  E(UM06L) =  -3034.19298172     A.U. after   17 cycles
 Normal termination of Gaussian 16 at Tue Feb 11 23:33:42 2020.
 Gaussian 16:  ES64L-G16RevA.03 25-Dec-2016

                         Standard orientation:
 ---------------------------------------------------------------------
 Center     Atomic      Atomic             Coordinates (Angstroms)
 Number     Number       Type             X           Y           Z
 ---------------------------------------------------------------------
      1          8           0       -0.340111   -0.144262   -0.509088
      2          6           0       -1.197802   -1.118223   -0.349383
      3          6           0       -2.649303   -0.369770    0.716198
      4          6           0       -2.842777    0.765252   -0.062556
      5          6           0       -3.792604    0.773930   -1.213093
      6         26           0        1.475132    0.171189   -0.071125
      7         17           0        1.811319    2.179626   -0.896006
      8          6           0       -2.062136    1.997405    0.161913
      9         17           0        2.575647   -1.474702   -1.023649
     10         17           0        1.645186    0.139517    2.132738
     11          1           0       -3.380070   -1.163315    0.560506
     12          1           0       -2.481756    2.862727   -0.355750
     13          1           0       -1.903540    2.222175    1.219231
     14          1           0       -1.060523    1.797355   -0.263595
     15          1           0       -4.594518    1.489958   -0.982753
     16          1           0       -3.306048    1.147028   -2.123300
     17          1           0       -4.246935   -0.198819   -1.406893
     18          6           0       -2.129268   -0.232649    2.137782
     19          1           0       -2.784840    0.434375    2.709359
     20          1           0       -2.122817   -1.198825    2.644664
     21          1           0       -1.115977    0.174399    2.173577
     22          6           0       -0.762253   -2.260608    0.561918
     23          1           0       -1.583081   -2.943977    0.793627
     24          1           0        0.002851   -2.811421    0.000375
     25          1           0       -0.298187   -1.901248    1.479400
     26          6           0       -1.814833   -1.609513   -1.651283
     27          1           0       -1.047824   -2.218145   -2.144215
     28          1           0       -2.697188   -2.235340   -1.491816
     29          1           0       -2.052822   -0.784179   -2.321868
 ---------------------------------------------------------------------

 SCF Done:  E(UB97D3) =  -3034.61429160     A.U. after   16 cycles
 Normal termination of Gaussian 16 at Tue Feb 11 23:46:38 2020.
