 Gaussian 16, Revision A.03,

 --------------------------------
 #t pop=none jul-cc-pvdz upbe1pbe
 --------------------------------
 ------------------------
 theory_abbreviation pbe0
 ------------------------
 Symbolic Z-matrix:
 Charge =  0 Multiplicity = 6

 SCF Done:  E(UPBE1PBE) =  -3033.12257494     A.U. after   21 cycles
 Normal termination of Gaussian 16 at Tue Feb 11 13:59:32 2020.

 ---------------------------------------------------------------------
 #t pop=none jul-cc-pvdz guess=read upbe1pbe empiricaldispersion=gd3bj
 ---------------------------------------------------------------------
 -----------------------------
 theory_abbreviation pbe0_d3bj
 -----------------------------
 Symbolic Z-matrix:
 Charge =  0 Multiplicity = 6

 SCF Done:  E(UPBE1PBE) =  -3033.15955599     A.U. after    1 cycles
 Normal termination of Gaussian 16 at Tue Feb 11 14:00:42 2020.

 -----------------------------------------
 #t pop=none jul-cc-pvdz guess=read ub3lyp
 -----------------------------------------
 -------------------------
 theory_abbreviation b3lyp
 -------------------------
 Symbolic Z-matrix:
 Charge =  0 Multiplicity = 6

 SCF Done:  E(UB3LYP) =  -3034.33897603     A.U. after   14 cycles
 Normal termination of Gaussian 16 at Tue Feb 11 14:15:25 2020.

 -------------------------------------------------------------------
 #t pop=none jul-cc-pvdz guess=read ub3lyp empiricaldispersion=gd3bj
 -------------------------------------------------------------------
 ------------------------------
 theory_abbreviation b3lyp_d3bj
 ------------------------------
 Symbolic Z-matrix:
 Charge =  0 Multiplicity = 6

 SCF Done:  E(UB3LYP) =  -3034.40776011     A.U. after    1 cycles
 Normal termination of Gaussian 16 at Tue Feb 11 14:16:34 2020.

 ----------------------------------------
 #t pop=none jul-cc-pvdz guess=read ub97d
 ----------------------------------------
 ------------------------
 theory_abbreviation b97d
 ------------------------
 Symbolic Z-matrix:
 Charge =  0 Multiplicity = 6

 SCF Done:  E(UB97D) =  -3034.59211033     A.U. after   15 cycles

 ----------------------------------------------------------------
 #t pop=none jul-cc-pvdz guess=read ub97d empiricaldispersion=gd3
 ----------------------------------------------------------------
 -------------------------
 theory_abbreviation b97d3
 -------------------------
 Symbolic Z-matrix:
 Charge =  0 Multiplicity = 6

 SCF Done:  E(UB97D) =  -3034.59317646     A.U. after    1 cycles
 SCF Done:  E(UBHandHLYP) =  -3033.97890174     A.U. after   18 cycles
 SCF Done:  E(UBHandH) =  -3026.32048079     A.U. after   16 cycles
 SCF Done:  E(ULC-wPBE) =  -3033.46131264     A.U. after   19 cycles
 SCF Done:  E(UB-P86) =  -3034.64295661     A.U. after   17 cycles
 SCF Done:  E(UmPW1LYP) =  -3034.05691963     A.U. after   16 cycles
 SCF Done:  E(UmPW1PBE) =  -3033.89708645     A.U. after   16 cycles
 SCF Done:  E(UmPW3PBE) =  -3033.67011747     A.U. after   13 cycles
 SCF Done:  E(UM11) =  -3033.81909010     A.U. after   19 cycles
 SCF Done:  E(UN12SX) =  -3033.26155769     A.U. after   18 cycles
 SCF Done:  E(UMN12SX) =  -3033.66085280     A.U. after   16 cycles
 SCF Done:  E(UB1B95) =  -3034.39162024     A.U. after   14 cycles
 Normal termination of Gaussian 16 at Tue Feb 11 23:07:59 2020.
 SCF Done:  E(UB3PW91) =  -3033.98595492     A.U. after   16 cycles
 Normal termination of Gaussian 16 at Tue Feb 11 23:24:35 2020.
 SCF Done:  E(UM06L) =  -3034.20553790     A.U. after   18 cycles
 Normal termination of Gaussian 16 at Tue Feb 11 23:44:12 2020.
 Gaussian 16:  ES64L-G16RevA.03 25-Dec-2016

                         Standard orientation:
 ---------------------------------------------------------------------
 Center     Atomic      Atomic             Coordinates (Angstroms)
 Number     Number       Type             X           Y           Z
 ---------------------------------------------------------------------
      1          8           0       -0.249177   -0.277225   -0.753756
      2          6           0       -1.119270   -1.194524   -0.576793
      3          6           0       -2.799266   -0.316208    0.635098
      4          6           0       -2.765303    0.863161   -0.052911
      5          6           0       -3.552604    1.069588   -1.311155
      6         26           0        1.484807    0.164494   -0.034921
      7         17           0        1.979827    2.055326   -1.011296
      8          6           0       -1.874709    1.994782    0.338060
      9         17           0        2.705894   -1.564007   -0.601255
     10         17           0        1.273570    0.366579    2.148279
     11          1           0       -3.521798   -1.055727    0.292639
     12          1           0       -2.379373    2.958006    0.204330
     13          1           0       -1.495162    1.924561    1.357403
     14          1           0       -1.007383    1.999485   -0.340574
     15          1           0       -4.252432    1.902732   -1.163341
     16          1           0       -2.897646    1.363491   -2.142195
     17          1           0       -4.131240    0.189133   -1.599026
     18          6           0       -2.380941   -0.443750    2.084436
     19          1           0       -3.071022    0.131876    2.713821
     20          1           0       -2.431479   -1.481392    2.420475
     21          1           0       -1.371937   -0.074500    2.277419
     22          6           0       -0.812478   -2.290973    0.413587
     23          1           0       -1.679542   -2.916068    0.632929
     24          1           0       -0.049032   -2.912235   -0.075766
     25          1           0       -0.374323   -1.905251    1.333464
     26          6           0       -1.885664   -1.610041   -1.810792
     27          1           0       -1.217734   -2.285449   -2.362401
     28          1           0       -2.802152   -2.155669   -1.579683
     29          1           0       -2.095843   -0.758517   -2.456044
 ---------------------------------------------------------------------

 SCF Done:  E(UB97D3) =  -3034.62854977     A.U. after   15 cycles
 Normal termination of Gaussian 16 at Tue Feb 11 23:55:58 2020.
