 Gaussian 16, Revision A.03,

 --------------------------------
 #t pop=none jul-cc-pvdz upbe1pbe
 --------------------------------
 ------------------------
 theory_abbreviation pbe0
 ------------------------
 Symbolic Z-matrix:
 Charge =  0 Multiplicity = 6

 SCF Done:  E(UPBE1PBE) =  -3033.11211078     A.U. after   21 cycles
 Normal termination of Gaussian 16 at Tue Feb 11 13:58:58 2020.

 ---------------------------------------------------------------------
 #t pop=none jul-cc-pvdz guess=read upbe1pbe empiricaldispersion=gd3bj
 ---------------------------------------------------------------------
 -----------------------------
 theory_abbreviation pbe0_d3bj
 -----------------------------
 Symbolic Z-matrix:
 Charge =  0 Multiplicity = 6

 SCF Done:  E(UPBE1PBE) =  -3033.14820469     A.U. after    1 cycles
 Normal termination of Gaussian 16 at Tue Feb 11 14:00:10 2020.

 -----------------------------------------
 #t pop=none jul-cc-pvdz guess=read ub3lyp
 -----------------------------------------
 -------------------------
 theory_abbreviation b3lyp
 -------------------------
 Symbolic Z-matrix:
 Charge =  0 Multiplicity = 6

 SCF Done:  E(UB3LYP) =  -3034.32437439     A.U. after   15 cycles
 Normal termination of Gaussian 16 at Tue Feb 11 14:16:24 2020.

 -------------------------------------------------------------------
 #t pop=none jul-cc-pvdz guess=read ub3lyp empiricaldispersion=gd3bj
 -------------------------------------------------------------------
 ------------------------------
 theory_abbreviation b3lyp_d3bj
 ------------------------------
 Symbolic Z-matrix:
 Charge =  0 Multiplicity = 6

 SCF Done:  E(UB3LYP) =  -3034.39173432     A.U. after    1 cycles
 Normal termination of Gaussian 16 at Tue Feb 11 14:17:36 2020.

 ----------------------------------------
 #t pop=none jul-cc-pvdz guess=read ub97d
 ----------------------------------------
 ------------------------
 theory_abbreviation b97d
 ------------------------
 Symbolic Z-matrix:
 Charge =  0 Multiplicity = 6

 SCF Done:  E(UB97D) =  -3034.57647756     A.U. after   16 cycles

 ----------------------------------------------------------------
 #t pop=none jul-cc-pvdz guess=read ub97d empiricaldispersion=gd3
 ----------------------------------------------------------------
 -------------------------
 theory_abbreviation b97d3
 -------------------------
 Symbolic Z-matrix:
 Charge =  0 Multiplicity = 6

 SCF Done:  E(UB97D) =  -3034.57669966     A.U. after    1 cycles
 SCF Done:  E(UBHandHLYP) =  -3033.96541930     A.U. after   17 cycles
 SCF Done:  E(UBHandH) =  -3026.31405802     A.U. after   16 cycles
 SCF Done:  E(ULC-wPBE) =  -3033.45150707     A.U. after   17 cycles
 SCF Done:  E(UB-P86) =  -3034.63032199     A.U. after   17 cycles
 SCF Done:  E(UmPW1LYP) =  -3034.04209069     A.U. after   15 cycles
 SCF Done:  E(UmPW1PBE) =  -3033.88658242     A.U. after   15 cycles
 SCF Done:  E(UmPW3PBE) =  -3033.65906851     A.U. after   15 cycles
 SCF Done:  E(UM11) =  -3033.80626109     A.U. after   18 cycles
 SCF Done:  E(UN12SX) =  -3033.25172125     A.U. after   17 cycles
 SCF Done:  E(UMN12SX) =  -3033.64673704     A.U. after   16 cycles
 SCF Done:  E(UB1B95) =  -3034.37844875     A.U. after   16 cycles
 Normal termination of Gaussian 16 at Tue Feb 11 23:23:21 2020.
 SCF Done:  E(UB3PW91) =  -3033.97445481     A.U. after   15 cycles
 Normal termination of Gaussian 16 at Tue Feb 11 23:38:28 2020.
 SCF Done:  E(UM06L) =  -3034.19050300     A.U. after   16 cycles
 Normal termination of Gaussian 16 at Tue Feb 11 23:55:31 2020.
 Gaussian 16:  ES64L-G16RevA.03 25-Dec-2016

                         Standard orientation:
 ---------------------------------------------------------------------
 Center     Atomic      Atomic             Coordinates (Angstroms)
 Number     Number       Type             X           Y           Z
 ---------------------------------------------------------------------
      1          8           0       -0.324797   -0.097291   -0.411174
      2          6           0       -1.241114   -1.060118   -0.235890
      3          6           0       -2.532019   -0.393806    0.739863
      4          6           0       -2.982796    0.703790   -0.046087
      5          6           0       -4.109546    0.560619   -1.002889
      6         26           0        1.500831    0.173208   -0.088287
      7         17           0        1.796379    2.216759   -0.858517
      8          6           0       -2.229060    1.953069   -0.036984
      9         17           0        2.535831   -1.439506   -1.171350
     10         17           0        1.818039    0.060311    2.100879
     11          1           0       -3.257452   -1.210346    0.754694
     12          1           0       -2.655553    2.743944   -0.655077
     13          1           0       -1.991753    2.313264    0.968224
     14          1           0       -1.234439    1.634574   -0.445066
     15          1           0       -4.941486    1.174276   -0.622971
     16          1           0       -3.853220    0.977583   -1.984428
     17          1           0       -4.460112   -0.466993   -1.107384
     18          6           0       -1.966094   -0.064491    2.125187
     19          1           0       -2.638642    0.614555    2.659301
     20          1           0       -1.874190   -0.973944    2.720455
     21          1           0       -0.977940    0.395288    2.061839
     22          6           0       -0.737719   -2.243607    0.605382
     23          1           0       -1.541731   -2.945357    0.845853
     24          1           0        0.011931   -2.761168   -0.002952
     25          1           0       -0.246977   -1.910945    1.519878
     26          6           0       -1.799254   -1.544270   -1.577342
     27          1           0       -0.998447   -2.090903   -2.084713
     28          1           0       -2.654267   -2.217465   -1.456116
     29          1           0       -2.077565   -0.707155   -2.221337
 ---------------------------------------------------------------------

 SCF Done:  E(UB97D3) =  -3034.61121146     A.U. after   16 cycles
 Normal termination of Gaussian 16 at Wed Feb 12 00:08:47 2020.
