 Gaussian 16, Revision A.03,

 --------------------------------
 #t pop=none jul-cc-pvdz upbe1pbe
 --------------------------------
 ------------------------
 theory_abbreviation pbe0
 ------------------------
 Symbolic Z-matrix:
 Charge =  0 Multiplicity = 6

 SCF Done:  E(UPBE1PBE) =  -3033.09022026     A.U. after   22 cycles
 Normal termination of Gaussian 16 at Tue Feb 11 14:00:56 2020.

 ---------------------------------------------------------------------
 #t pop=none jul-cc-pvdz guess=read upbe1pbe empiricaldispersion=gd3bj
 ---------------------------------------------------------------------
 -----------------------------
 theory_abbreviation pbe0_d3bj
 -----------------------------
 Symbolic Z-matrix:
 Charge =  0 Multiplicity = 6

 SCF Done:  E(UPBE1PBE) =  -3033.12780825     A.U. after    1 cycles
 Normal termination of Gaussian 16 at Tue Feb 11 14:02:08 2020.

 -----------------------------------------
 #t pop=none jul-cc-pvdz guess=read ub3lyp
 -----------------------------------------
 -------------------------
 theory_abbreviation b3lyp
 -------------------------
 Symbolic Z-matrix:
 Charge =  0 Multiplicity = 6

 SCF Done:  E(UB3LYP) =  -3034.30362687     A.U. after   14 cycles
 Normal termination of Gaussian 16 at Tue Feb 11 14:17:16 2020.

 -------------------------------------------------------------------
 #t pop=none jul-cc-pvdz guess=read ub3lyp empiricaldispersion=gd3bj
 -------------------------------------------------------------------
 ------------------------------
 theory_abbreviation b3lyp_d3bj
 ------------------------------
 Symbolic Z-matrix:
 Charge =  0 Multiplicity = 6

 SCF Done:  E(UB3LYP) =  -3034.37362116     A.U. after    1 cycles
 Normal termination of Gaussian 16 at Tue Feb 11 14:18:27 2020.

 ----------------------------------------
 #t pop=none jul-cc-pvdz guess=read ub97d
 ----------------------------------------
 ------------------------
 theory_abbreviation b97d
 ------------------------
 Symbolic Z-matrix:
 Charge =  0 Multiplicity = 6

 SCF Done:  E(UB97D) =  -3034.55661084     A.U. after   15 cycles

 ----------------------------------------------------------------
 #t pop=none jul-cc-pvdz guess=read ub97d empiricaldispersion=gd3
 ----------------------------------------------------------------
 -------------------------
 theory_abbreviation b97d3
 -------------------------
 Symbolic Z-matrix:
 Charge =  0 Multiplicity = 6

 SCF Done:  E(UB97D) =  -3034.55808096     A.U. after    1 cycles
 SCF Done:  E(UBHandHLYP) =  -3033.94459358     A.U. after   19 cycles
 SCF Done:  E(UBHandH) =  -3026.29130234     A.U. after   16 cycles
 SCF Done:  E(ULC-wPBE) =  -3033.43007620     A.U. after   19 cycles
 SCF Done:  E(UB-P86) =  -3034.61178951     A.U. after   16 cycles
 SCF Done:  E(UmPW1LYP) =  -3034.02163605     A.U. after   15 cycles
 SCF Done:  E(UmPW1PBE) =  -3033.86473692     A.U. after   15 cycles
 SCF Done:  E(UmPW3PBE) =  -3033.63731654     A.U. after   13 cycles
 SCF Done:  E(UM11) =  -3033.78482095     A.U. after   18 cycles
 SCF Done:  E(UN12SX) =  -3033.23047547     A.U. after   17 cycles
 SCF Done:  E(UMN12SX) =  -3033.62790042     A.U. after   15 cycles
 SCF Done:  E(UB1B95) =  -3034.35815025     A.U. after   16 cycles
 Normal termination of Gaussian 16 at Tue Feb 11 23:06:50 2020.
 SCF Done:  E(UB3PW91) =  -3033.95266749     A.U. after   15 cycles
 Normal termination of Gaussian 16 at Tue Feb 11 23:22:56 2020.
 SCF Done:  E(UM06L) =  -3034.16930245     A.U. after   18 cycles
 Normal termination of Gaussian 16 at Tue Feb 11 23:43:13 2020.
 Gaussian 16:  ES64L-G16RevA.03 25-Dec-2016

                         Standard orientation:
 ---------------------------------------------------------------------
 Center     Atomic      Atomic             Coordinates (Angstroms)
 Number     Number       Type             X           Y           Z
 ---------------------------------------------------------------------
      1          8           0       -0.396492   -0.090829   -0.454417
      2          6           0       -1.294248   -1.122430   -0.404299
      3          6           0       -3.004067   -0.016154   -0.169426
      4          6           0       -2.079355    1.064996   -0.268642
      5          6           0       -1.877320    1.752381   -1.576239
      6         26           0        1.409226    0.054196    0.055362
      7         17           0        1.946850    2.007811   -0.818586
      8          6           0       -1.594760    1.785705    0.943530
      9         17           0        2.382655   -1.738825   -0.772615
     10         17           0        1.413595    0.082215    2.268066
     11          1           0       -3.545656   -0.231653   -1.088752
     12          1           0       -2.406141    2.462917    1.253009
     13          1           0       -1.384427    1.118327    1.779804
     14          1           0       -0.705855    2.380752    0.728585
     15          1           0       -2.584859    2.596522   -1.593661
     16          1           0       -0.864531    2.149287   -1.669984
     17          1           0       -2.112451    1.108155   -2.425564
     18          6           0       -3.751194   -0.343646    1.100492
     19          1           0       -4.611265    0.326672    1.229959
     20          1           0       -4.141316   -1.365511    1.062854
     21          1           0       -3.129483   -0.256732    1.994438
     22          6           0       -1.201905   -2.002279    0.807837
     23          1           0       -2.038907   -2.701396    0.872400
     24          1           0       -0.274001   -2.583778    0.703530
     25          1           0       -1.113785   -1.422918    1.727838
     26          6           0       -1.481521   -1.822453   -1.721730
     27          1           0       -0.538747   -2.347010   -1.933589
     28          1           0       -2.295566   -2.551280   -1.686705
     29          1           0       -1.647408   -1.111956   -2.534080
 ---------------------------------------------------------------------

 SCF Done:  E(UB97D3) =  -3034.59358559     A.U. after   17 cycles
 Normal termination of Gaussian 16 at Tue Feb 11 23:56:52 2020.
