 Gaussian 16, Revision A.03,

 --------------------------------
 #t pop=none jul-cc-pvdz upbe1pbe
 --------------------------------
 ------------------------
 theory_abbreviation pbe0
 ------------------------
 Symbolic Z-matrix:
 Charge =  0 Multiplicity = 6

 SCF Done:  E(UPBE1PBE) =  -3033.13926389     A.U. after   20 cycles
 Normal termination of Gaussian 16 at Wed Feb 12 14:10:42 2020.

 ---------------------------------------------------------------------
 #t pop=none jul-cc-pvdz guess=read upbe1pbe empiricaldispersion=gd3bj
 ---------------------------------------------------------------------
 -----------------------------
 theory_abbreviation pbe0_d3bj
 -----------------------------
 Symbolic Z-matrix:
 Charge =  0 Multiplicity = 6

 SCF Done:  E(UPBE1PBE) =  -3033.17521119     A.U. after    1 cycles
 Normal termination of Gaussian 16 at Wed Feb 12 14:11:47 2020.

 -----------------------------------------
 #t pop=none jul-cc-pvdz guess=read ub3lyp
 -----------------------------------------
 -------------------------
 theory_abbreviation b3lyp
 -------------------------
 Symbolic Z-matrix:
 Charge =  0 Multiplicity = 6

 SCF Done:  E(UB3LYP) =  -3034.35816147     A.U. after   13 cycles
 Normal termination of Gaussian 16 at Wed Feb 12 14:24:30 2020.

 -------------------------------------------------------------------
 #t pop=none jul-cc-pvdz guess=read ub3lyp empiricaldispersion=gd3bj
 -------------------------------------------------------------------
 ------------------------------
 theory_abbreviation b3lyp_d3bj
 ------------------------------
 Symbolic Z-matrix:
 Charge =  0 Multiplicity = 6

 SCF Done:  E(UB3LYP) =  -3034.42459964     A.U. after    1 cycles
 Normal termination of Gaussian 16 at Wed Feb 12 14:25:35 2020.

 ----------------------------------------
 #t pop=none jul-cc-pvdz guess=read ub97d
 ----------------------------------------
 ------------------------
 theory_abbreviation b97d
 ------------------------
 Symbolic Z-matrix:
 Charge =  0 Multiplicity = 6

 SCF Done:  E(UB97D) =  -3034.60749612     A.U. after   15 cycles

 ----------------------------------------------------------------
 #t pop=none jul-cc-pvdz guess=read ub97d empiricaldispersion=gd3
 ----------------------------------------------------------------
 -------------------------
 theory_abbreviation b97d3
 -------------------------
 Symbolic Z-matrix:
 Charge =  0 Multiplicity = 6

 SCF Done:  E(UB97D) =  -3034.60907260     A.U. after    3 cycles
 SCF Done:  E(UBHandHLYP) =  -3034.00002253     A.U. after   18 cycles
 SCF Done:  E(UBHandH) =  -3026.33454756     A.U. after   14 cycles
 SCF Done:  E(ULC-wPBE) =  -3033.48026848     A.U. after   17 cycles
 SCF Done:  E(UB-P86) =  -3034.65621419     A.U. after   17 cycles
 SCF Done:  E(UmPW1LYP) =  -3034.07651981     A.U. after   13 cycles
 SCF Done:  E(UmPW1PBE) =  -3033.91376966     A.U. after   14 cycles
 SCF Done:  E(UmPW3PBE) =  -3033.68676932     A.U. after   13 cycles
 SCF Done:  E(UM11) =  -3033.83766060     A.U. after   17 cycles
 SCF Done:  E(UN12SX) =  -3033.27823213     A.U. after   16 cycles
 SCF Done:  E(UMN12SX) =  -3033.68042417     A.U. after   16 cycles
 SCF Done:  E(UB1B95) =  -3034.40989843     A.U. after   14 cycles
 Normal termination of Gaussian 16 at Wed Feb 12 21:47:21 2020.
 SCF Done:  E(UB3PW91) =  -3034.00311574     A.U. after   13 cycles
 Normal termination of Gaussian 16 at Wed Feb 12 22:00:01 2020.
 SCF Done:  E(UM06L) =  -3034.22470323     A.U. after   18 cycles
 Normal termination of Gaussian 16 at Wed Feb 12 22:19:05 2020.
 Gaussian 16:  ES64L-G16RevA.03 25-Dec-2016

                         Standard orientation:
 ---------------------------------------------------------------------
 Center     Atomic      Atomic             Coordinates (Angstroms)
 Number     Number       Type             X           Y           Z
 ---------------------------------------------------------------------
      1          8           0        0.144042    0.441383   -0.901288
      2          6           0        0.915327    1.402314   -0.686568
      3          6           0        3.122076    0.112939    0.574495
      4          6           0        2.720843   -0.920694   -0.190800
      5          6           0        3.215944   -1.087773   -1.603032
      6         26           0       -1.500027   -0.179695    0.013287
      7         17           0       -2.054604   -1.991615   -1.048813
      8          6           0        1.791215   -2.006939    0.269627
      9         17           0       -2.793770    1.555761   -0.299425
     10         17           0       -1.030119   -0.486732    2.132902
     11          1           0        3.839841    0.807520    0.135517
     12          1           0        2.306149   -2.976650    0.243928
     13          1           0        1.403664   -1.855353    1.276809
     14          1           0        0.938053   -2.097448   -0.415448
     15          1           0        3.758125   -2.037161   -1.704060
     16          1           0        2.376387   -1.137803   -2.309473
     17          1           0        3.890222   -0.282050   -1.908086
     18          6           0        2.854535    0.310712    2.042297
     19          1           0        3.668462   -0.124474    2.638441
     20          1           0        2.815000    1.373802    2.301976
     21          1           0        1.921164   -0.150969    2.373227
     22          6           0        0.763794    2.257119    0.530843
     23          1           0        1.646111    2.871409    0.713566
     24          1           0       -0.093562    2.919427    0.338438
     25          1           0        0.519138    1.660628    1.410636
     26          6           0        1.770713    1.889265   -1.814374
     27          1           0        1.227859    2.727584   -2.275770
     28          1           0        2.730400    2.270675   -1.462600
     29          1           0        1.909066    1.114174   -2.566499
 ---------------------------------------------------------------------

 SCF Done:  E(UB97D3) =  -3034.64374856     A.U. after   16 cycles
 Normal termination of Gaussian 16 at Wed Feb 12 22:31:22 2020.
