 Gaussian 16, Revision A.03,

 --------------------------------
 #t pop=none jul-cc-pvdz upbe1pbe
 --------------------------------
 ------------------------
 theory_abbreviation pbe0
 ------------------------
 Symbolic Z-matrix:
 Charge =  0 Multiplicity = 6

 SCF Done:  E(UPBE1PBE) =  -3033.10669304     A.U. after   20 cycles
 Normal termination of Gaussian 16 at Tue Feb 11 13:57:57 2020.

 ---------------------------------------------------------------------
 #t pop=none jul-cc-pvdz guess=read upbe1pbe empiricaldispersion=gd3bj
 ---------------------------------------------------------------------
 -----------------------------
 theory_abbreviation pbe0_d3bj
 -----------------------------
 Symbolic Z-matrix:
 Charge =  0 Multiplicity = 6

 SCF Done:  E(UPBE1PBE) =  -3033.14466290     A.U. after    1 cycles
 Normal termination of Gaussian 16 at Tue Feb 11 13:59:07 2020.

 -----------------------------------------
 #t pop=none jul-cc-pvdz guess=read ub3lyp
 -----------------------------------------
 -------------------------
 theory_abbreviation b3lyp
 -------------------------
 Symbolic Z-matrix:
 Charge =  0 Multiplicity = 6

 SCF Done:  E(UB3LYP) =  -3034.32068912     A.U. after   13 cycles
 Normal termination of Gaussian 16 at Tue Feb 11 14:12:50 2020.

 -------------------------------------------------------------------
 #t pop=none jul-cc-pvdz guess=read ub3lyp empiricaldispersion=gd3bj
 -------------------------------------------------------------------
 ------------------------------
 theory_abbreviation b3lyp_d3bj
 ------------------------------
 Symbolic Z-matrix:
 Charge =  0 Multiplicity = 6

 SCF Done:  E(UB3LYP) =  -3034.39146417     A.U. after    1 cycles
 Normal termination of Gaussian 16 at Tue Feb 11 14:14:00 2020.

 ----------------------------------------
 #t pop=none jul-cc-pvdz guess=read ub97d
 ----------------------------------------
 ------------------------
 theory_abbreviation b97d
 ------------------------
 Symbolic Z-matrix:
 Charge =  0 Multiplicity = 6

 SCF Done:  E(UB97D) =  -3034.57380005     A.U. after   15 cycles

 ----------------------------------------------------------------
 #t pop=none jul-cc-pvdz guess=read ub97d empiricaldispersion=gd3
 ----------------------------------------------------------------
 -------------------------
 theory_abbreviation b97d3
 -------------------------
 Symbolic Z-matrix:
 Charge =  0 Multiplicity = 6

 SCF Done:  E(UB97D) =  -3034.57546307     A.U. after    1 cycles
 SCF Done:  E(UBHandHLYP) =  -3033.96272142     A.U. after   18 cycles
 SCF Done:  E(UBHandH) =  -3026.30874585     A.U. after   14 cycles
 SCF Done:  E(ULC-wPBE) =  -3033.44729813     A.U. after   19 cycles
 SCF Done:  E(UB-P86) =  -3034.62726382     A.U. after   17 cycles
 SCF Done:  E(UmPW1LYP) =  -3034.03886490     A.U. after   14 cycles
 SCF Done:  E(UmPW1PBE) =  -3033.88115945     A.U. after   14 cycles
 SCF Done:  E(UmPW3PBE) =  -3033.65369189     A.U. after   13 cycles
 SCF Done:  E(UM11) =  -3033.80455027     A.U. after   17 cycles
 SCF Done:  E(UN12SX) =  -3033.24611478     A.U. after   17 cycles
 SCF Done:  E(UMN12SX) =  -3033.64607756     A.U. after   15 cycles
 SCF Done:  E(UB1B95) =  -3034.37655502     A.U. after   15 cycles
 Normal termination of Gaussian 16 at Tue Feb 11 22:32:22 2020.
 SCF Done:  E(UB3PW91) =  -3033.96917978     A.U. after   14 cycles
 Normal termination of Gaussian 16 at Tue Feb 11 22:46:59 2020.
 SCF Done:  E(UM06L) =  -3034.18884830     A.U. after   17 cycles
 Normal termination of Gaussian 16 at Tue Feb 11 23:07:29 2020.
 Gaussian 16:  ES64L-G16RevA.03 25-Dec-2016

                         Standard orientation:
 ---------------------------------------------------------------------
 Center     Atomic      Atomic             Coordinates (Angstroms)
 Number     Number       Type             X           Y           Z
 ---------------------------------------------------------------------
      1          8           0       -0.332282   -0.105930   -0.584506
      2          6           0       -1.230385   -1.034109   -0.522414
      3          6           0       -3.108341   -0.012853   -0.002497
      4          6           0       -2.279415    1.057376   -0.203242
      5          6           0       -2.159285    1.715476   -1.540458
      6         26           0        1.451813    0.062036    0.052060
      7         17           0        2.060005    2.002794   -0.769101
      8          6           0       -1.575107    1.754125    0.918306
      9         17           0        2.438195   -1.726062   -0.763902
     10         17           0        1.383362    0.030317    2.257536
     11          1           0       -3.692802   -0.343780   -0.857982
     12          1           0       -2.267379    2.500841    1.334001
     13          1           0       -1.283304    1.087956    1.731030
     14          1           0       -0.687934    2.283758    0.564301
     15          1           0       -2.557777    2.735250   -1.448473
     16          1           0       -1.109094    1.806839   -1.833353
     17          1           0       -2.726026    1.203418   -2.321261
     18          6           0       -3.628712   -0.465541    1.337093
     19          1           0       -4.546889    0.088165    1.574427
     20          1           0       -3.890957   -1.527474    1.331535
     21          1           0       -2.923999   -0.291473    2.152931
     22          6           0       -1.158481   -1.997089    0.631066
     23          1           0       -2.028354   -2.651297    0.693473
     24          1           0       -0.273256   -2.618679    0.430316
     25          1           0       -0.982403   -1.488579    1.579248
     26          6           0       -1.674037   -1.601052   -1.847679
     27          1           0       -0.829996   -2.211644   -2.198611
     28          1           0       -2.555333   -2.239406   -1.759527
     29          1           0       -1.837339   -0.817220   -2.587666
 ---------------------------------------------------------------------

 SCF Done:  E(UB97D3) =  -3034.61140066     A.U. after   16 cycles
 Normal termination of Gaussian 16 at Tue Feb 11 23:20:23 2020.
