 Gaussian 16, Revision A.03,

 --------------------------------
 #t pop=none jul-cc-pvdz upbe1pbe
 --------------------------------
 ------------------------
 theory_abbreviation pbe0
 ------------------------
 Symbolic Z-matrix:
 Charge =  0 Multiplicity = 6

 SCF Done:  E(UPBE1PBE) =  -3033.13869234     A.U. after   20 cycles
 Normal termination of Gaussian 16 at Wed Feb 12 14:12:02 2020.

 ---------------------------------------------------------------------
 #t pop=none jul-cc-pvdz guess=read upbe1pbe empiricaldispersion=gd3bj
 ---------------------------------------------------------------------
 -----------------------------
 theory_abbreviation pbe0_d3bj
 -----------------------------
 Symbolic Z-matrix:
 Charge =  0 Multiplicity = 6

 SCF Done:  E(UPBE1PBE) =  -3033.17473068     A.U. after    1 cycles
 Normal termination of Gaussian 16 at Wed Feb 12 14:13:12 2020.

 -----------------------------------------
 #t pop=none jul-cc-pvdz guess=read ub3lyp
 -----------------------------------------
 -------------------------
 theory_abbreviation b3lyp
 -------------------------
 Symbolic Z-matrix:
 Charge =  0 Multiplicity = 6

 SCF Done:  E(UB3LYP) =  -3034.35744467     A.U. after   13 cycles
 Normal termination of Gaussian 16 at Wed Feb 12 14:26:39 2020.

 -------------------------------------------------------------------
 #t pop=none jul-cc-pvdz guess=read ub3lyp empiricaldispersion=gd3bj
 -------------------------------------------------------------------
 ------------------------------
 theory_abbreviation b3lyp_d3bj
 ------------------------------
 Symbolic Z-matrix:
 Charge =  0 Multiplicity = 6

 SCF Done:  E(UB3LYP) =  -3034.42406006     A.U. after    1 cycles
 Normal termination of Gaussian 16 at Wed Feb 12 14:27:48 2020.

 ----------------------------------------
 #t pop=none jul-cc-pvdz guess=read ub97d
 ----------------------------------------
 ------------------------
 theory_abbreviation b97d
 ------------------------
 Symbolic Z-matrix:
 Charge =  0 Multiplicity = 6

 SCF Done:  E(UB97D) =  -3034.60655062     A.U. after   16 cycles

 ----------------------------------------------------------------
 #t pop=none jul-cc-pvdz guess=read ub97d empiricaldispersion=gd3
 ----------------------------------------------------------------
 -------------------------
 theory_abbreviation b97d3
 -------------------------
 Symbolic Z-matrix:
 Charge =  0 Multiplicity = 6

 SCF Done:  E(UB97D) =  -3034.60860689     A.U. after    3 cycles
 SCF Done:  E(UBHandHLYP) =  -3033.99956994     A.U. after   18 cycles
 SCF Done:  E(UBHandH) =  -3026.33421303     A.U. after   14 cycles
 SCF Done:  E(ULC-wPBE) =  -3033.48036951     A.U. after   17 cycles
 SCF Done:  E(UB-P86) =  -3034.65558655     A.U. after   18 cycles
 SCF Done:  E(UmPW1LYP) =  -3034.07583777     A.U. after   13 cycles
 SCF Done:  E(UmPW1PBE) =  -3033.91318685     A.U. after   14 cycles
 SCF Done:  E(UmPW3PBE) =  -3033.68613507     A.U. after   13 cycles
 SCF Done:  E(UM11) =  -3033.83784932     A.U. after   17 cycles
 SCF Done:  E(UN12SX) =  -3033.27765602     A.U. after   16 cycles
 SCF Done:  E(UMN12SX) =  -3033.68028237     A.U. after   16 cycles
 SCF Done:  E(UB1B95) =  -3034.40972290     A.U. after   14 cycles
 Normal termination of Gaussian 16 at Wed Feb 12 22:01:11 2020.
 SCF Done:  E(UB3PW91) =  -3034.00247740     A.U. after   14 cycles
 Normal termination of Gaussian 16 at Wed Feb 12 22:14:39 2020.
 SCF Done:  E(UM06L) =  -3034.22439048     A.U. after   17 cycles
 Normal termination of Gaussian 16 at Wed Feb 12 22:32:38 2020.
 Gaussian 16:  ES64L-G16RevA.03 25-Dec-2016

                         Standard orientation:
 ---------------------------------------------------------------------
 Center     Atomic      Atomic             Coordinates (Angstroms)
 Number     Number       Type             X           Y           Z
 ---------------------------------------------------------------------
      1          8           0        0.200180    0.447094   -0.851139
      2          6           0        0.910572    1.447980   -0.623568
      3          6           0        3.202505   -0.018981    0.515539
      4          6           0        2.624182   -0.938452   -0.279288
      5          6           0        2.989628   -1.053115   -1.736285
      6         26           0       -1.473215   -0.174647    0.028614
      7         17           0       -2.073441   -1.933525   -1.093953
      8          6           0        1.671806   -1.997994    0.198183
      9         17           0       -2.721251    1.599553   -0.265151
     10         17           0       -1.056310   -0.531061    2.149713
     11          1           0        3.939278    0.643710    0.058306
     12          1           0        2.166441   -2.978425    0.161954
     13          1           0        1.312775   -1.842018    1.215249
     14          1           0        0.804173   -2.073875   -0.467593
     15          1           0        3.439202   -2.034428   -1.937877
     16          1           0        2.095288   -0.989091   -2.369557
     17          1           0        3.704528   -0.286139   -2.049596
     18          6           0        3.040208    0.133984    2.002466
     19          1           0        3.891818   -0.314787    2.532274
     20          1           0        3.017037    1.190714    2.293772
     21          1           0        2.130605   -0.338391    2.381993
     22          6           0        0.787276    2.218705    0.651202
     23          1           0        1.655919    2.854893    0.827363
     24          1           0       -0.102865    2.857451    0.551775
     25          1           0        0.616046    1.554419    1.499666
     26          6           0        1.732227    2.017975   -1.735529
     27          1           0        1.222206    2.932270   -2.072293
     28          1           0        2.724977    2.308529   -1.385198
     29          1           0        1.801306    1.324224   -2.571738
 ---------------------------------------------------------------------

 SCF Done:  E(UB97D3) =  -3034.64295134     A.U. after   16 cycles
 Normal termination of Gaussian 16 at Wed Feb 12 22:44:53 2020.
