 Gaussian 16, Revision A.03,

 --------------------------------
 #t pop=none jul-cc-pvdz upbe1pbe
 --------------------------------
 ------------------------
 theory_abbreviation pbe0
 ------------------------
 Symbolic Z-matrix:
 Charge =  0 Multiplicity = 6

 SCF Done:  E(UPBE1PBE) =  -3033.10225696     A.U. after   21 cycles
 Normal termination of Gaussian 16 at Tue Feb 11 13:59:34 2020.

 ---------------------------------------------------------------------
 #t pop=none jul-cc-pvdz guess=read upbe1pbe empiricaldispersion=gd3bj
 ---------------------------------------------------------------------
 -----------------------------
 theory_abbreviation pbe0_d3bj
 -----------------------------
 Symbolic Z-matrix:
 Charge =  0 Multiplicity = 6

 SCF Done:  E(UPBE1PBE) =  -3033.13928052     A.U. after    1 cycles
 Normal termination of Gaussian 16 at Tue Feb 11 14:00:47 2020.

 -----------------------------------------
 #t pop=none jul-cc-pvdz guess=read ub3lyp
 -----------------------------------------
 -------------------------
 theory_abbreviation b3lyp
 -------------------------
 Symbolic Z-matrix:
 Charge =  0 Multiplicity = 6

 SCF Done:  E(UB3LYP) =  -3034.31539768     A.U. after   14 cycles
 Normal termination of Gaussian 16 at Tue Feb 11 14:16:12 2020.

 -------------------------------------------------------------------
 #t pop=none jul-cc-pvdz guess=read ub3lyp empiricaldispersion=gd3bj
 -------------------------------------------------------------------
 ------------------------------
 theory_abbreviation b3lyp_d3bj
 ------------------------------
 Symbolic Z-matrix:
 Charge =  0 Multiplicity = 6

 SCF Done:  E(UB3LYP) =  -3034.38429835     A.U. after    1 cycles
 Normal termination of Gaussian 16 at Tue Feb 11 14:17:25 2020.

 ----------------------------------------
 #t pop=none jul-cc-pvdz guess=read ub97d
 ----------------------------------------
 ------------------------
 theory_abbreviation b97d
 ------------------------
 Symbolic Z-matrix:
 Charge =  0 Multiplicity = 6

 SCF Done:  E(UB97D) =  -3034.56612331     A.U. after   15 cycles

 ----------------------------------------------------------------
 #t pop=none jul-cc-pvdz guess=read ub97d empiricaldispersion=gd3
 ----------------------------------------------------------------
 -------------------------
 theory_abbreviation b97d3
 -------------------------
 Symbolic Z-matrix:
 Charge =  0 Multiplicity = 6

 SCF Done:  E(UB97D) =  -3034.56699331     A.U. after    3 cycles
 SCF Done:  E(UBHandHLYP) =  -3033.95896016     A.U. after   15 cycles
 SCF Done:  E(UBHandH) =  -3026.30517298     A.U. after   13 cycles
 SCF Done:  E(ULC-wPBE) =  -3033.44491988     A.U. after   17 cycles
 SCF Done:  E(UB-P86) =  -3034.62077851     A.U. after   15 cycles
 SCF Done:  E(UmPW1LYP) =  -3034.03388291     A.U. after   14 cycles
 SCF Done:  E(UmPW1PBE) =  -3033.87673126     A.U. after   15 cycles
 SCF Done:  E(UmPW3PBE) =  -3033.64889987     A.U. after   13 cycles
 SCF Done:  E(UM11) =  -3033.79846390     A.U. after   16 cycles
 SCF Done:  E(UN12SX) =  -3033.24248657     A.U. after   15 cycles
 SCF Done:  E(UMN12SX) =  -3033.63967202     A.U. after   16 cycles
 SCF Done:  E(UB1B95) =  -3034.36890498     A.U. after   14 cycles
 Normal termination of Gaussian 16 at Tue Feb 11 22:45:36 2020.
 SCF Done:  E(UB3PW91) =  -3033.96427356     A.U. after   13 cycles
 Normal termination of Gaussian 16 at Tue Feb 11 23:00:55 2020.
 SCF Done:  E(UM06L) =  -3034.18012716     A.U. after   18 cycles
 Normal termination of Gaussian 16 at Tue Feb 11 23:21:49 2020.
 Gaussian 16:  ES64L-G16RevA.03 25-Dec-2016

                         Standard orientation:
 ---------------------------------------------------------------------
 Center     Atomic      Atomic             Coordinates (Angstroms)
 Number     Number       Type             X           Y           Z
 ---------------------------------------------------------------------
      1          8           0       -0.350932   -0.209304   -0.566385
      2          6           0       -1.362954   -1.161118   -0.434981
      3          6           0       -2.856893   -0.113982   -0.128143
      4          6           0       -2.083007    1.109815   -0.250393
      5          6           0       -1.949420    1.789452   -1.558601
      6         26           0        1.387932    0.043420    0.034444
      7         17           0        1.806874    2.064258   -0.788293
      8          6           0       -1.574528    1.823309    0.941545
      9         17           0        2.598946   -1.628911   -0.717181
     10         17           0        1.295196    0.097218    2.257169
     11          1           0       -3.485979   -0.283224   -1.003081
     12          1           0       -2.419963    2.415503    1.330973
     13          1           0       -1.259009    1.146219    1.737027
     14          1           0       -0.756786    2.501667    0.691952
     15          1           0       -2.635392    2.652823   -1.534880
     16          1           0       -0.934517    2.177272   -1.688628
     17          1           0       -2.231794    1.151560   -2.396964
     18          6           0       -3.579628   -0.411026    1.173859
     19          1           0       -4.414040    0.284796    1.324107
     20          1           0       -3.997232   -1.421129    1.145445
     21          1           0       -2.925714   -0.345489    2.045962
     22          6           0       -1.158561   -2.093321    0.736782
     23          1           0       -1.990638   -2.792644    0.855145
     24          1           0       -0.248871   -2.672713    0.530519
     25          1           0       -0.989737   -1.550425    1.667988
     26          6           0       -1.601417   -1.875978   -1.748831
     27          1           0       -0.690442   -2.437823   -1.989436
     28          1           0       -2.443472   -2.572455   -1.685922
     29          1           0       -1.774020   -1.164958   -2.560935
 ---------------------------------------------------------------------

 SCF Done:  E(UB97D3) =  -3034.60188566     A.U. after   14 cycles
 Normal termination of Gaussian 16 at Tue Feb 11 23:33:49 2020.
