 Gaussian 16, Revision A.03,

 --------------------------------
 #t pop=none jul-cc-pvdz upbe1pbe
 --------------------------------
 ------------------------
 theory_abbreviation pbe0
 ------------------------
 Symbolic Z-matrix:
 Charge =  0 Multiplicity = 6

 SCF Done:  E(UPBE1PBE) =  -3033.10790018     A.U. after   20 cycles
 Normal termination of Gaussian 16 at Tue Feb 11 13:56:12 2020.

 ---------------------------------------------------------------------
 #t pop=none jul-cc-pvdz guess=read upbe1pbe empiricaldispersion=gd3bj
 ---------------------------------------------------------------------
 -----------------------------
 theory_abbreviation pbe0_d3bj
 -----------------------------
 Symbolic Z-matrix:
 Charge =  0 Multiplicity = 6

 SCF Done:  E(UPBE1PBE) =  -3033.14514305     A.U. after    1 cycles
 Normal termination of Gaussian 16 at Tue Feb 11 13:57:24 2020.

 -----------------------------------------
 #t pop=none jul-cc-pvdz guess=read ub3lyp
 -----------------------------------------
 -------------------------
 theory_abbreviation b3lyp
 -------------------------
 Symbolic Z-matrix:
 Charge =  0 Multiplicity = 6

 SCF Done:  E(UB3LYP) =  -3034.32012926     A.U. after   13 cycles
 Normal termination of Gaussian 16 at Tue Feb 11 14:11:18 2020.

 -------------------------------------------------------------------
 #t pop=none jul-cc-pvdz guess=read ub3lyp empiricaldispersion=gd3bj
 -------------------------------------------------------------------
 ------------------------------
 theory_abbreviation b3lyp_d3bj
 ------------------------------
 Symbolic Z-matrix:
 Charge =  0 Multiplicity = 6

 SCF Done:  E(UB3LYP) =  -3034.38949523     A.U. after    1 cycles
 Normal termination of Gaussian 16 at Tue Feb 11 14:12:30 2020.

 ----------------------------------------
 #t pop=none jul-cc-pvdz guess=read ub97d
 ----------------------------------------
 ------------------------
 theory_abbreviation b97d
 ------------------------
 Symbolic Z-matrix:
 Charge =  0 Multiplicity = 6

 SCF Done:  E(UB97D) =  -3034.56969290     A.U. after   16 cycles

 ----------------------------------------------------------------
 #t pop=none jul-cc-pvdz guess=read ub97d empiricaldispersion=gd3
 ----------------------------------------------------------------
 -------------------------
 theory_abbreviation b97d3
 -------------------------
 Symbolic Z-matrix:
 Charge =  0 Multiplicity = 6

 SCF Done:  E(UB97D) =  -3034.57090862     A.U. after    1 cycles
 SCF Done:  E(UBHandHLYP) =  -3033.96556281     A.U. after   16 cycles
 SCF Done:  E(UBHandH) =  -3026.31367986     A.U. after   14 cycles
 SCF Done:  E(ULC-wPBE) =  -3033.45347926     A.U. after   16 cycles
 SCF Done:  E(UB-P86) =  -3034.62561656     A.U. after   16 cycles
 SCF Done:  E(UmPW1LYP) =  -3034.03890169     A.U. after   13 cycles
 SCF Done:  E(UmPW1PBE) =  -3033.88220308     A.U. after   14 cycles
 SCF Done:  E(UmPW3PBE) =  -3033.65410320     A.U. after   12 cycles
 SCF Done:  E(UM11) =  -3033.80480805     A.U. after   16 cycles
 SCF Done:  E(UN12SX) =  -3033.24798690     A.U. after   15 cycles
 SCF Done:  E(UMN12SX) =  -3033.64501051     A.U. after   16 cycles
 SCF Done:  E(UB1B95) =  -3034.37367966     A.U. after   14 cycles
 Normal termination of Gaussian 16 at Tue Feb 11 22:36:26 2020.
 SCF Done:  E(UB3PW91) =  -3033.96934056     A.U. after   13 cycles
 Normal termination of Gaussian 16 at Tue Feb 11 22:50:00 2020.
 SCF Done:  E(UM06L) =  -3034.18559301     A.U. after   18 cycles
 Normal termination of Gaussian 16 at Tue Feb 11 23:10:44 2020.
 Gaussian 16:  ES64L-G16RevA.03 25-Dec-2016

                         Standard orientation:
 ---------------------------------------------------------------------
 Center     Atomic      Atomic             Coordinates (Angstroms)
 Number     Number       Type             X           Y           Z
 ---------------------------------------------------------------------
      1          8           0       -0.298556   -0.358655   -0.692808
      2          6           0       -1.419837   -1.207195   -0.484996
      3          6           0       -2.653128   -0.208205   -0.033867
      4          6           0       -2.048139    1.141923   -0.234839
      5          6           0       -1.992478    1.756362   -1.570472
      6         26           0        1.353988    0.030779    0.008389
      7         17           0        1.650323    2.101103   -0.772486
      8          6           0       -1.585233    1.939004    0.905815
      9         17           0        2.823240   -1.478869   -0.596565
     10         17           0        1.085883    0.110178    2.238862
     11          1           0       -3.443804   -0.333531   -0.782525
     12          1           0       -2.461791    2.176447    1.529016
     13          1           0       -0.925475    1.339341    1.552699
     14          1           0       -1.071503    2.852420    0.606642
     15          1           0       -2.617913    2.663847   -1.545584
     16          1           0       -0.963004    2.100519   -1.747491
     17          1           0       -2.326677    1.100162   -2.372656
     18          6           0       -3.227979   -0.456864    1.361121
     19          1           0       -4.034674    0.250829    1.583653
     20          1           0       -3.652982   -1.462136    1.410538
     21          1           0       -2.471692   -0.374970    2.144946
     22          6           0       -1.106778   -2.262552    0.569481
     23          1           0       -1.942208   -2.953243    0.720394
     24          1           0       -0.247557   -2.838979    0.208547
     25          1           0       -0.824971   -1.815705    1.524128
     26          6           0       -1.769114   -1.866505   -1.818090
     27          1           0       -0.917585   -2.472656   -2.142210
     28          1           0       -2.649208   -2.512742   -1.725041
     29          1           0       -1.958667   -1.117437   -2.592424
 ---------------------------------------------------------------------

 SCF Done:  E(UB97D3) =  -3034.60596987     A.U. after   14 cycles
 Normal termination of Gaussian 16 at Tue Feb 11 23:22:04 2020.
