 Gaussian 16, Revision A.03,

 --------------------------------
 #t pop=none jul-cc-pvdz upbe1pbe
 --------------------------------
 ------------------------
 theory_abbreviation pbe0
 ------------------------
 Symbolic Z-matrix:
 Charge =  0 Multiplicity = 6

 SCF Done:  E(UPBE1PBE) =  -3033.09877111     A.U. after   21 cycles
 Normal termination of Gaussian 16 at Tue Feb 11 13:59:43 2020.

 ---------------------------------------------------------------------
 #t pop=none jul-cc-pvdz guess=read upbe1pbe empiricaldispersion=gd3bj
 ---------------------------------------------------------------------
 -----------------------------
 theory_abbreviation pbe0_d3bj
 -----------------------------
 Symbolic Z-matrix:
 Charge =  0 Multiplicity = 6

 SCF Done:  E(UPBE1PBE) =  -3033.13617068     A.U. after    1 cycles
 Normal termination of Gaussian 16 at Tue Feb 11 14:00:59 2020.

 -----------------------------------------
 #t pop=none jul-cc-pvdz guess=read ub3lyp
 -----------------------------------------
 -------------------------
 theory_abbreviation b3lyp
 -------------------------
 Symbolic Z-matrix:
 Charge =  0 Multiplicity = 6

 SCF Done:  E(UB3LYP) =  -3034.31157946     A.U. after   14 cycles
 Normal termination of Gaussian 16 at Tue Feb 11 14:16:07 2020.

 -------------------------------------------------------------------
 #t pop=none jul-cc-pvdz guess=read ub3lyp empiricaldispersion=gd3bj
 -------------------------------------------------------------------
 ------------------------------
 theory_abbreviation b3lyp_d3bj
 ------------------------------
 Symbolic Z-matrix:
 Charge =  0 Multiplicity = 6

 SCF Done:  E(UB3LYP) =  -3034.38124803     A.U. after    1 cycles
 Normal termination of Gaussian 16 at Tue Feb 11 14:17:19 2020.

 ----------------------------------------
 #t pop=none jul-cc-pvdz guess=read ub97d
 ----------------------------------------
 ------------------------
 theory_abbreviation b97d
 ------------------------
 Symbolic Z-matrix:
 Charge =  0 Multiplicity = 6

 SCF Done:  E(UB97D) =  -3034.56369851     A.U. after   16 cycles

 ----------------------------------------------------------------
 #t pop=none jul-cc-pvdz guess=read ub97d empiricaldispersion=gd3
 ----------------------------------------------------------------
 -------------------------
 theory_abbreviation b97d3
 -------------------------
 Symbolic Z-matrix:
 Charge =  0 Multiplicity = 6

 SCF Done:  E(UB97D) =  -3034.56455045     A.U. after    1 cycles
 SCF Done:  E(UBHandHLYP) =  -3033.95457844     A.U. after   18 cycles
 SCF Done:  E(UBHandH) =  -3026.30203239     A.U. after   14 cycles
 SCF Done:  E(ULC-wPBE) =  -3033.43950299     A.U. after   18 cycles
 SCF Done:  E(UB-P86) =  -3034.61761811     A.U. after   16 cycles
 SCF Done:  E(UmPW1LYP) =  -3034.02991521     A.U. after   15 cycles
 SCF Done:  E(UmPW1PBE) =  -3033.87322252     A.U. after   15 cycles
 SCF Done:  E(UmPW3PBE) =  -3033.64545900     A.U. after   12 cycles
 SCF Done:  E(UM11) =  -3033.79608180     A.U. after   19 cycles
 SCF Done:  E(UN12SX) =  -3033.23888900     A.U. after   16 cycles
 SCF Done:  E(UMN12SX) =  -3033.63741212     A.U. after   15 cycles
 SCF Done:  E(UB1B95) =  -3034.36739326     A.U. after   16 cycles
 Normal termination of Gaussian 16 at Tue Feb 11 22:53:29 2020.
 SCF Done:  E(UB3PW91) =  -3033.96078589     A.U. after   15 cycles
 Normal termination of Gaussian 16 at Tue Feb 11 23:09:00 2020.
 SCF Done:  E(UM06L) =  -3034.17830734     A.U. after   17 cycles
 Normal termination of Gaussian 16 at Tue Feb 11 23:27:53 2020.
 Gaussian 16:  ES64L-G16RevA.03 25-Dec-2016

                         Standard orientation:
 ---------------------------------------------------------------------
 Center     Atomic      Atomic             Coordinates (Angstroms)
 Number     Number       Type             X           Y           Z
 ---------------------------------------------------------------------
      1          8           0       -0.350828   -0.116066   -0.526536
      2          6           0       -1.301518   -1.056948   -0.453724
      3          6           0       -2.994794   -0.047113   -0.117499
      4          6           0       -2.172269    1.081091   -0.227864
      5          6           0       -1.980275    1.770854   -1.532398
      6         26           0        1.422580    0.047876    0.045482
      7         17           0        1.956361    2.023827   -0.784597
      8          6           0       -1.597024    1.757694    0.967267
      9         17           0        2.463378   -1.715246   -0.763927
     10         17           0        1.378251    0.053791    2.262152
     11          1           0       -3.557956   -0.292133   -1.015768
     12          1           0       -2.380244    2.422204    1.364923
     13          1           0       -1.322438    1.063467    1.762429
     14          1           0       -0.727488    2.363833    0.707698
     15          1           0       -2.577406    2.695162   -1.488739
     16          1           0       -0.935075    2.057404   -1.674384
     17          1           0       -2.335558    1.183313   -2.380709
     18          6           0       -3.677936   -0.444184    1.171543
     19          1           0       -4.571947    0.173639    1.324489
     20          1           0       -4.007954   -1.485959    1.132936
     21          1           0       -3.039550   -0.324445    2.049106
     22          6           0       -1.189831   -1.998517    0.719349
     23          1           0       -2.036303   -2.683688    0.793028
     24          1           0       -0.281086   -2.590106    0.538828
     25          1           0       -1.040959   -1.466595    1.659769
     26          6           0       -1.593717   -1.717200   -1.782137
     27          1           0       -0.692764   -2.289167   -2.041939
     28          1           0       -2.446745   -2.398717   -1.729588
     29          1           0       -1.748619   -0.978868   -2.571238
 ---------------------------------------------------------------------

 SCF Done:  E(UB97D3) =  -3034.59968508     A.U. after   15 cycles
 Normal termination of Gaussian 16 at Tue Feb 11 23:40:02 2020.
