 Gaussian 16, Revision A.03,

 --------------------------------
 #t pop=none jul-cc-pvdz upbe1pbe
 --------------------------------
 ------------------------
 theory_abbreviation pbe0
 ------------------------
 Symbolic Z-matrix:
 Charge =  0 Multiplicity = 6

 SCF Done:  E(UPBE1PBE) =  -3033.10551773     A.U. after   21 cycles
 Normal termination of Gaussian 16 at Tue Feb 11 13:59:15 2020.

 ---------------------------------------------------------------------
 #t pop=none jul-cc-pvdz guess=read upbe1pbe empiricaldispersion=gd3bj
 ---------------------------------------------------------------------
 -----------------------------
 theory_abbreviation pbe0_d3bj
 -----------------------------
 Symbolic Z-matrix:
 Charge =  0 Multiplicity = 6

 SCF Done:  E(UPBE1PBE) =  -3033.14276204     A.U. after    1 cycles
 Normal termination of Gaussian 16 at Tue Feb 11 14:00:26 2020.

 -----------------------------------------
 #t pop=none jul-cc-pvdz guess=read ub3lyp
 -----------------------------------------
 -------------------------
 theory_abbreviation b3lyp
 -------------------------
 Symbolic Z-matrix:
 Charge =  0 Multiplicity = 6

 SCF Done:  E(UB3LYP) =  -3034.31823265     A.U. after   14 cycles
 Normal termination of Gaussian 16 at Tue Feb 11 14:15:17 2020.

 -------------------------------------------------------------------
 #t pop=none jul-cc-pvdz guess=read ub3lyp empiricaldispersion=gd3bj
 -------------------------------------------------------------------
 ------------------------------
 theory_abbreviation b3lyp_d3bj
 ------------------------------
 Symbolic Z-matrix:
 Charge =  0 Multiplicity = 6

 SCF Done:  E(UB3LYP) =  -3034.38765928     A.U. after    1 cycles
 Normal termination of Gaussian 16 at Tue Feb 11 14:16:28 2020.

 ----------------------------------------
 #t pop=none jul-cc-pvdz guess=read ub97d
 ----------------------------------------
 ------------------------
 theory_abbreviation b97d
 ------------------------
 Symbolic Z-matrix:
 Charge =  0 Multiplicity = 6

 SCF Done:  E(UB97D) =  -3034.57107711     A.U. after   17 cycles

 ----------------------------------------------------------------
 #t pop=none jul-cc-pvdz guess=read ub97d empiricaldispersion=gd3
 ----------------------------------------------------------------
 -------------------------
 theory_abbreviation b97d3
 -------------------------
 Symbolic Z-matrix:
 Charge =  0 Multiplicity = 6

 SCF Done:  E(UB97D) =  -3034.57116128     A.U. after    1 cycles
 SCF Done:  E(UBHandHLYP) =  -3033.96115451     A.U. after   17 cycles
 SCF Done:  E(UBHandH) =  -3026.30911570     A.U. after   16 cycles
 SCF Done:  E(ULC-wPBE) =  -3033.44623451     A.U. after   18 cycles
 SCF Done:  E(UB-P86) =  -3034.62383221     A.U. after   16 cycles
 SCF Done:  E(UmPW1LYP) =  -3034.03657185     A.U. after   14 cycles
 SCF Done:  E(UmPW1PBE) =  -3033.87987005     A.U. after   13 cycles
 SCF Done:  E(UmPW3PBE) =  -3033.65212724     A.U. after   15 cycles
 SCF Done:  E(UM11) =  -3033.80376476     A.U. after   19 cycles
 SCF Done:  E(UN12SX) =  -3033.24551039     A.U. after   17 cycles
 SCF Done:  E(UMN12SX) =  -3033.64382679     A.U. after   16 cycles
 SCF Done:  E(UB1B95) =  -3034.37369917     A.U. after   16 cycles
 Normal termination of Gaussian 16 at Tue Feb 11 22:58:33 2020.
 SCF Done:  E(UB3PW91) =  -3033.96744029     A.U. after   15 cycles
 Normal termination of Gaussian 16 at Tue Feb 11 23:14:03 2020.
 SCF Done:  E(UM06L) =  -3034.18592427     A.U. after   18 cycles
 Normal termination of Gaussian 16 at Tue Feb 11 23:33:57 2020.
 Gaussian 16:  ES64L-G16RevA.03 25-Dec-2016

                         Standard orientation:
 ---------------------------------------------------------------------
 Center     Atomic      Atomic             Coordinates (Angstroms)
 Number     Number       Type             X           Y           Z
 ---------------------------------------------------------------------
      1          8           0       -0.334942   -0.138389   -0.678014
      2          6           0       -1.272991   -1.068087   -0.563352
      3          6           0       -2.826198   -0.235385    0.271308
      4          6           0       -2.370641    1.014570   -0.142687
      5          6           0       -2.662530    1.557191   -1.496418
      6         26           0        1.398468    0.093373    0.005647
      7         17           0        1.954664    2.095311   -0.724080
      8          6           0       -1.563260    1.896616    0.735440
      9         17           0        2.595709   -1.586448   -0.754793
     10         17           0        1.202886    0.035904    2.224387
     11          1           0       -3.610543   -0.668271   -0.346932
     12          1           0       -2.270136    2.595197    1.212813
     13          1           0       -1.039265    1.364691    1.528404
     14          1           0       -0.847895    2.490523    0.160029
     15          1           0       -3.008465    2.593686   -1.397128
     16          1           0       -1.721624    1.599961   -2.060973
     17          1           0       -3.407466    0.982274   -2.047966
     18          6           0       -2.932974   -0.578681    1.745667
     19          1           0       -3.746889   -0.000390    2.199414
     20          1           0       -3.168302   -1.636192    1.882046
     21          1           0       -2.018016   -0.361563    2.300725
     22          6           0       -0.962192   -2.212668    0.382271
     23          1           0       -1.796986   -2.909763    0.482290
     24          1           0       -0.116695   -2.745490   -0.073296
     25          1           0       -0.636406   -1.864728    1.361974
     26          6           0       -1.807290   -1.540965   -1.906927
     27          1           0       -0.984218   -2.088691   -2.381705
     28          1           0       -2.660364   -2.216113   -1.801624
     29          1           0       -2.064293   -0.712311   -2.566340
 ---------------------------------------------------------------------

 SCF Done:  E(UB97D3) =  -3034.60577996     A.U. after   16 cycles
 Normal termination of Gaussian 16 at Tue Feb 11 23:46:52 2020.
