 Gaussian 16, Revision A.03,

 --------------------------------
 #t pop=none jul-cc-pvdz upbe1pbe
 --------------------------------
 ------------------------
 theory_abbreviation pbe0
 ------------------------
 Symbolic Z-matrix:
 Charge =  0 Multiplicity = 6

 SCF Done:  E(UPBE1PBE) =  -3033.11444793     A.U. after   21 cycles
 Normal termination of Gaussian 16 at Tue Feb 11 14:46:09 2020.

 ---------------------------------------------------------------------
 #t pop=none jul-cc-pvdz guess=read upbe1pbe empiricaldispersion=gd3bj
 ---------------------------------------------------------------------
 -----------------------------
 theory_abbreviation pbe0_d3bj
 -----------------------------
 Symbolic Z-matrix:
 Charge =  0 Multiplicity = 6

 SCF Done:  E(UPBE1PBE) =  -3033.15005727     A.U. after    1 cycles
 Normal termination of Gaussian 16 at Tue Feb 11 14:47:18 2020.

 -----------------------------------------
 #t pop=none jul-cc-pvdz guess=read ub3lyp
 -----------------------------------------
 -------------------------
 theory_abbreviation b3lyp
 -------------------------
 Symbolic Z-matrix:
 Charge =  0 Multiplicity = 6

 SCF Done:  E(UB3LYP) =  -3034.32921071     A.U. after   15 cycles
 Normal termination of Gaussian 16 at Tue Feb 11 15:02:53 2020.

 -------------------------------------------------------------------
 #t pop=none jul-cc-pvdz guess=read ub3lyp empiricaldispersion=gd3bj
 -------------------------------------------------------------------
 ------------------------------
 theory_abbreviation b3lyp_d3bj
 ------------------------------
 Symbolic Z-matrix:
 Charge =  0 Multiplicity = 6

 SCF Done:  E(UB3LYP) =  -3034.39563691     A.U. after    1 cycles
 Normal termination of Gaussian 16 at Tue Feb 11 15:04:03 2020.

 ----------------------------------------
 #t pop=none jul-cc-pvdz guess=read ub97d
 ----------------------------------------
 ------------------------
 theory_abbreviation b97d
 ------------------------
 Symbolic Z-matrix:
 Charge =  0 Multiplicity = 6

 SCF Done:  E(UB97D) =  -3034.58208396     A.U. after   17 cycles

 ----------------------------------------------------------------
 #t pop=none jul-cc-pvdz guess=read ub97d empiricaldispersion=gd3
 ----------------------------------------------------------------
 -------------------------
 theory_abbreviation b97d3
 -------------------------
 Symbolic Z-matrix:
 Charge =  0 Multiplicity = 6

 SCF Done:  E(UB97D) =  -3034.58210050     A.U. after    1 cycles
 SCF Done:  E(UBHandHLYP) =  -3033.96793005     A.U. after   17 cycles
 SCF Done:  E(UBHandH) =  -3026.31216497     A.U. after   16 cycles
 SCF Done:  E(ULC-wPBE) =  -3033.45084541     A.U. after   19 cycles
 SCF Done:  E(UB-P86) =  -3034.63351623     A.U. after   17 cycles
 SCF Done:  E(UmPW1LYP) =  -3034.04669274     A.U. after   15 cycles
 SCF Done:  E(UmPW1PBE) =  -3033.88910080     A.U. after   16 cycles
 SCF Done:  E(UmPW3PBE) =  -3033.66206976     A.U. after   15 cycles
 SCF Done:  E(UM11) =  -3033.80918132     A.U. after   19 cycles
 SCF Done:  E(UN12SX) =  -3033.25396204     A.U. after   17 cycles
 SCF Done:  E(UMN12SX) =  -3033.64989435     A.U. after   17 cycles
 SCF Done:  E(UB1B95) =  -3034.38193568     A.U. after   16 cycles
 Normal termination of Gaussian 16 at Tue Feb 11 23:54:51 2020.
 SCF Done:  E(UB3PW91) =  -3033.97778306     A.U. after   15 cycles
 Normal termination of Gaussian 16 at Wed Feb 12 00:11:25 2020.
 SCF Done:  E(UM06L) =  -3034.19417015     A.U. after   16 cycles
 Normal termination of Gaussian 16 at Wed Feb 12 00:29:10 2020.
 Gaussian 16:  ES64L-G16RevA.03 25-Dec-2016

                         Standard orientation:
 ---------------------------------------------------------------------
 Center     Atomic      Atomic             Coordinates (Angstroms)
 Number     Number       Type             X           Y           Z
 ---------------------------------------------------------------------
      1          8           0       -0.286206   -0.146102   -0.431640
      2          6           0       -1.174329   -1.064532   -0.149088
      3          6           0       -2.581927   -0.195244    0.883149
      4          6           0       -3.163776    0.626963   -0.082469
      5          6           0       -4.334813    0.192617   -0.893536
      6         26           0        1.558846    0.165675   -0.110114
      7         17           0        1.931183    2.073751   -1.123243
      8          6           0       -2.525206    1.923537   -0.412215
      9         17           0        2.522914   -1.606486   -0.987148
     10         17           0        1.877875    0.288084    2.069397
     11          1           0       -3.172367   -1.077057    1.132165
     12          1           0       -3.046270    2.473203   -1.198421
     13          1           0       -2.410968    2.560427    0.472219
     14          1           0       -1.492685    1.694042   -0.741323
     15          1           0       -5.172581    0.870718   -0.673839
     16          1           0       -4.135645    0.297721   -1.967434
     17          1           0       -4.652056   -0.828836   -0.675107
     18          6           0       -1.841185    0.438475    2.052789
     19          1           0       -2.474115    1.192189    2.534201
     20          1           0       -1.589229   -0.309177    2.805595
     21          1           0       -0.913008    0.919397    1.739584
     22          6           0       -0.741042   -2.107743    0.878056
     23          1           0       -1.564127   -2.754363    1.191053
     24          1           0        0.014949   -2.723064    0.373752
     25          1           0       -0.263123   -1.653180    1.745377
     26          6           0       -1.827646   -1.670961   -1.381645
     27          1           0       -1.080526   -2.327609   -1.842421
     28          1           0       -2.709388   -2.270214   -1.139341
     29          1           0       -2.083175   -0.902527   -2.113307
 ---------------------------------------------------------------------

 SCF Done:  E(UB97D3) =  -3034.61634265     A.U. after   16 cycles
 Normal termination of Gaussian 16 at Wed Feb 12 00:41:57 2020.
