 Gaussian 16, Revision A.03,

 --------------------------------
 #t pop=none jul-cc-pvdz upbe1pbe
 --------------------------------
 ------------------------
 theory_abbreviation pbe0
 ------------------------
 Symbolic Z-matrix:
 Charge =  0 Multiplicity = 6

 SCF Done:  E(UPBE1PBE) =  -3033.11147641     A.U. after   21 cycles
 Normal termination of Gaussian 16 at Tue Feb 11 13:57:25 2020.

 ---------------------------------------------------------------------
 #t pop=none jul-cc-pvdz guess=read upbe1pbe empiricaldispersion=gd3bj
 ---------------------------------------------------------------------
 -----------------------------
 theory_abbreviation pbe0_d3bj
 -----------------------------
 Symbolic Z-matrix:
 Charge =  0 Multiplicity = 6

 SCF Done:  E(UPBE1PBE) =  -3033.14840171     A.U. after    1 cycles
 Normal termination of Gaussian 16 at Tue Feb 11 13:58:37 2020.

 -----------------------------------------
 #t pop=none jul-cc-pvdz guess=read ub3lyp
 -----------------------------------------
 -------------------------
 theory_abbreviation b3lyp
 -------------------------
 Symbolic Z-matrix:
 Charge =  0 Multiplicity = 6

 SCF Done:  E(UB3LYP) =  -3034.32432638     A.U. after   13 cycles
 Normal termination of Gaussian 16 at Tue Feb 11 14:12:31 2020.

 -------------------------------------------------------------------
 #t pop=none jul-cc-pvdz guess=read ub3lyp empiricaldispersion=gd3bj
 -------------------------------------------------------------------
 ------------------------------
 theory_abbreviation b3lyp_d3bj
 ------------------------------
 Symbolic Z-matrix:
 Charge =  0 Multiplicity = 6

 SCF Done:  E(UB3LYP) =  -3034.39309073     A.U. after    1 cycles
 Normal termination of Gaussian 16 at Tue Feb 11 14:13:42 2020.

 ----------------------------------------
 #t pop=none jul-cc-pvdz guess=read ub97d
 ----------------------------------------
 ------------------------
 theory_abbreviation b97d
 ------------------------
 Symbolic Z-matrix:
 Charge =  0 Multiplicity = 6

 SCF Done:  E(UB97D) =  -3034.57390118     A.U. after   16 cycles

 ----------------------------------------------------------------
 #t pop=none jul-cc-pvdz guess=read ub97d empiricaldispersion=gd3
 ----------------------------------------------------------------
 -------------------------
 theory_abbreviation b97d3
 -------------------------
 Symbolic Z-matrix:
 Charge =  0 Multiplicity = 6

 SCF Done:  E(UB97D) =  -3034.57499774     A.U. after    1 cycles
 SCF Done:  E(UBHandHLYP) =  -3033.96874157     A.U. after   15 cycles
 SCF Done:  E(UBHandH) =  -3026.31492203     A.U. after   14 cycles
 SCF Done:  E(ULC-wPBE) =  -3033.45669505     A.U. after   17 cycles
 SCF Done:  E(UB-P86) =  -3034.62981792     A.U. after   17 cycles
 SCF Done:  E(UmPW1LYP) =  -3034.04285976     A.U. after   14 cycles
 SCF Done:  E(UmPW1PBE) =  -3033.88595207     A.U. after   14 cycles
 SCF Done:  E(UmPW3PBE) =  -3033.65799772     A.U. after   14 cycles
 SCF Done:  E(UM11) =  -3033.80728099     A.U. after   16 cycles
 SCF Done:  E(UN12SX) =  -3033.25148390     A.U. after   16 cycles
 SCF Done:  E(UMN12SX) =  -3033.64804091     A.U. after   16 cycles
 SCF Done:  E(UB1B95) =  -3034.37740414     A.U. after   15 cycles
 Normal termination of Gaussian 16 at Tue Feb 11 22:42:15 2020.
 SCF Done:  E(UB3PW91) =  -3033.97339800     A.U. after   14 cycles
 Normal termination of Gaussian 16 at Tue Feb 11 22:58:24 2020.
 SCF Done:  E(UM06L) =  -3034.18912548     A.U. after   17 cycles
 Normal termination of Gaussian 16 at Tue Feb 11 23:17:16 2020.
 Gaussian 16:  ES64L-G16RevA.03 25-Dec-2016

                         Standard orientation:
 ---------------------------------------------------------------------
 Center     Atomic      Atomic             Coordinates (Angstroms)
 Number     Number       Type             X           Y           Z
 ---------------------------------------------------------------------
      1          8           0       -0.339763   -0.298610   -0.610650
      2          6           0       -1.443682   -1.185408   -0.366329
      3          6           0       -2.723572   -0.146453   -0.295915
      4          6           0       -2.002114    1.170463   -0.235252
      5          6           0       -1.824962    1.985891   -1.449542
      6         26           0        1.380555    0.015848    0.011091
      7         17           0        1.754107    2.051713   -0.820678
      8          6           0       -1.622454    1.768421    1.058659
      9         17           0        2.673082   -1.607083   -0.699099
     10         17           0        1.308776    0.141671    2.230512
     11          1           0       -3.233753   -0.209190   -1.261361
     12          1           0       -2.522060    2.285695    1.434917
     13          1           0       -1.338455    1.024135    1.804131
     14          1           0       -0.824053    2.505165    0.946877
     15          1           0       -2.432235    2.899108   -1.338728
     16          1           0       -0.777825    2.315023   -1.509570
     17          1           0       -2.113861    1.462909   -2.361133
     18          6           0       -3.733354   -0.393158    0.825706
     19          1           0       -4.543581    0.344055    0.795381
     20          1           0       -4.183945   -1.381519    0.697128
     21          1           0       -3.275969   -0.360453    1.817002
     22          6           0       -1.241317   -1.970460    0.921800
     23          1           0       -2.076829   -2.651687    1.110135
     24          1           0       -0.330652   -2.570473    0.817232
     25          1           0       -1.101661   -1.321762    1.788434
     26          6           0       -1.590340   -2.112254   -1.564686
     27          1           0       -0.690931   -2.731344   -1.647747
     28          1           0       -2.461571   -2.768840   -1.457286
     29          1           0       -1.689552   -1.533362   -2.487712
 ---------------------------------------------------------------------

 SCF Done:  E(UB97D3) =  -3034.61031853     A.U. after   16 cycles
 Normal termination of Gaussian 16 at Tue Feb 11 23:30:05 2020.
