 Gaussian 16, Revision A.03,

 --------------------------------
 #t pop=none jul-cc-pvdz upbe1pbe
 --------------------------------
 ------------------------
 theory_abbreviation pbe0
 ------------------------
 Symbolic Z-matrix:
 Charge =  0 Multiplicity = 6

 SCF Done:  E(UPBE1PBE) =  -3033.13254474     A.U. after   19 cycles
 Normal termination of Gaussian 16 at Tue Feb 11 13:54:34 2020.

 ---------------------------------------------------------------------
 #t pop=none jul-cc-pvdz guess=read upbe1pbe empiricaldispersion=gd3bj
 ---------------------------------------------------------------------
 -----------------------------
 theory_abbreviation pbe0_d3bj
 -----------------------------
 Symbolic Z-matrix:
 Charge =  0 Multiplicity = 6

 SCF Done:  E(UPBE1PBE) =  -3033.16940623     A.U. after    1 cycles
 Normal termination of Gaussian 16 at Tue Feb 11 13:55:45 2020.

 -----------------------------------------
 #t pop=none jul-cc-pvdz guess=read ub3lyp
 -----------------------------------------
 -------------------------
 theory_abbreviation b3lyp
 -------------------------
 Symbolic Z-matrix:
 Charge =  0 Multiplicity = 6

 SCF Done:  E(UB3LYP) =  -3034.34408440     A.U. after   13 cycles
 Normal termination of Gaussian 16 at Tue Feb 11 14:09:34 2020.

 -------------------------------------------------------------------
 #t pop=none jul-cc-pvdz guess=read ub3lyp empiricaldispersion=gd3bj
 -------------------------------------------------------------------
 ------------------------------
 theory_abbreviation b3lyp_d3bj
 ------------------------------
 Symbolic Z-matrix:
 Charge =  0 Multiplicity = 6

 SCF Done:  E(UB3LYP) =  -3034.41270165     A.U. after    1 cycles
 Normal termination of Gaussian 16 at Tue Feb 11 14:10:51 2020.

 ----------------------------------------
 #t pop=none jul-cc-pvdz guess=read ub97d
 ----------------------------------------
 ------------------------
 theory_abbreviation b97d
 ------------------------
 Symbolic Z-matrix:
 Charge =  0 Multiplicity = 6

 SCF Done:  E(UB97D) =  -3034.59340871     A.U. after   15 cycles

 ----------------------------------------------------------------
 #t pop=none jul-cc-pvdz guess=read ub97d empiricaldispersion=gd3
 ----------------------------------------------------------------
 -------------------------
 theory_abbreviation b97d3
 -------------------------
 Symbolic Z-matrix:
 Charge =  0 Multiplicity = 6

 SCF Done:  E(UB97D) =  -3034.59397140     A.U. after    1 cycles
 SCF Done:  E(UBHandHLYP) =  -3033.98728654     A.U. after   16 cycles
 SCF Done:  E(UBHandH) =  -3026.33444798     A.U. after   14 cycles
 SCF Done:  E(ULC-wPBE) =  -3033.47993267     A.U. after   17 cycles
 SCF Done:  E(UB-P86) =  -3034.65009732     A.U. after   16 cycles
 SCF Done:  E(UmPW1LYP) =  -3034.06237784     A.U. after   14 cycles
 SCF Done:  E(UmPW1PBE) =  -3033.90695115     A.U. after   14 cycles
 SCF Done:  E(UmPW3PBE) =  -3033.67887251     A.U. after   13 cycles
 SCF Done:  E(UM11) =  -3033.82781648     A.U. after   16 cycles
 SCF Done:  E(UN12SX) =  -3033.27316239     A.U. after   16 cycles
 SCF Done:  E(UMN12SX) =  -3033.66694940     A.U. after   15 cycles
 SCF Done:  E(UB1B95) =  -3034.39853925     A.U. after   14 cycles
 Normal termination of Gaussian 16 at Tue Feb 11 22:20:59 2020.
 SCF Done:  E(UB3PW91) =  -3033.99417401     A.U. after   14 cycles
 Normal termination of Gaussian 16 at Tue Feb 11 22:35:37 2020.
 SCF Done:  E(UM06L) =  -3034.20742766     A.U. after   18 cycles
 Normal termination of Gaussian 16 at Tue Feb 11 22:56:36 2020.
 Gaussian 16:  ES64L-G16RevA.03 25-Dec-2016

                         Standard orientation:
 ---------------------------------------------------------------------
 Center     Atomic      Atomic             Coordinates (Angstroms)
 Number     Number       Type             X           Y           Z
 ---------------------------------------------------------------------
      1          8           0       -0.457418   -0.132066   -0.489171
      2          6           0       -1.486505   -1.170337   -0.320987
      3          6           0       -2.746886   -0.108283   -0.243641
      4          6           0       -1.853709    1.137740   -0.270247
      5          6           0       -1.787395    1.933773   -1.529191
      6         26           0        1.370784    0.029337    0.035902
      7         17           0        1.906977    1.967804   -0.860903
      8          6           0       -1.529516    1.855042    0.996815
      9         17           0        2.343223   -1.758917   -0.768969
     10         17           0        1.416823    0.124787    2.237436
     11          1           0       -3.301025   -0.168574   -1.185141
     12          1           0       -2.395023    2.485160    1.249771
     13          1           0       -1.344649    1.177800    1.830611
     14          1           0       -0.662677    2.507031    0.865421
     15          1           0       -2.621880    2.651511   -1.512932
     16          1           0       -0.851488    2.495003   -1.588701
     17          1           0       -1.895818    1.301919   -2.412593
     18          6           0       -3.713201   -0.244738    0.924986
     19          1           0       -4.464654    0.552903    0.906646
     20          1           0       -4.245795   -1.198410    0.855813
     21          1           0       -3.209507   -0.213225    1.893952
     22          6           0       -1.246181   -1.973380    0.942885
     23          1           0       -2.064736   -2.682195    1.105693
     24          1           0       -0.318254   -2.546074    0.839395
     25          1           0       -1.147097   -1.335861    1.823525
     26          6           0       -1.512665   -2.036170   -1.565659
     27          1           0       -0.559168   -2.564662   -1.667265
     28          1           0       -2.318523   -2.776094   -1.501128
     29          1           0       -1.663791   -1.426814   -2.461520
 ---------------------------------------------------------------------

 SCF Done:  E(UB97D3) =  -3034.62910712     A.U. after   14 cycles
 Normal termination of Gaussian 16 at Tue Feb 11 23:08:03 2020.
