 Gaussian 16, Revision A.03,

 --------------------------------
 #t pop=none jul-cc-pvdz upbe1pbe
 --------------------------------
 ------------------------
 theory_abbreviation pbe0
 ------------------------
 Symbolic Z-matrix:
 Charge =  0 Multiplicity = 6

 SCF Done:  E(UPBE1PBE) =  -3033.13903157     A.U. after   20 cycles
 Normal termination of Gaussian 16 at Wed Feb 12 14:11:08 2020.

 ---------------------------------------------------------------------
 #t pop=none jul-cc-pvdz guess=read upbe1pbe empiricaldispersion=gd3bj
 ---------------------------------------------------------------------
 -----------------------------
 theory_abbreviation pbe0_d3bj
 -----------------------------
 Symbolic Z-matrix:
 Charge =  0 Multiplicity = 6

 SCF Done:  E(UPBE1PBE) =  -3033.17509560     A.U. after    1 cycles
 Normal termination of Gaussian 16 at Wed Feb 12 14:12:15 2020.

 -----------------------------------------
 #t pop=none jul-cc-pvdz guess=read ub3lyp
 -----------------------------------------
 -------------------------
 theory_abbreviation b3lyp
 -------------------------
 Symbolic Z-matrix:
 Charge =  0 Multiplicity = 6

 SCF Done:  E(UB3LYP) =  -3034.35778520     A.U. after   13 cycles
 Normal termination of Gaussian 16 at Wed Feb 12 14:25:10 2020.

 -------------------------------------------------------------------
 #t pop=none jul-cc-pvdz guess=read ub3lyp empiricaldispersion=gd3bj
 -------------------------------------------------------------------
 ------------------------------
 theory_abbreviation b3lyp_d3bj
 ------------------------------
 Symbolic Z-matrix:
 Charge =  0 Multiplicity = 6

 SCF Done:  E(UB3LYP) =  -3034.42445682     A.U. after    1 cycles
 Normal termination of Gaussian 16 at Wed Feb 12 14:26:17 2020.

 ----------------------------------------
 #t pop=none jul-cc-pvdz guess=read ub97d
 ----------------------------------------
 ------------------------
 theory_abbreviation b97d
 ------------------------
 Symbolic Z-matrix:
 Charge =  0 Multiplicity = 6

 SCF Done:  E(UB97D) =  -3034.60714106     A.U. after   16 cycles

 ----------------------------------------------------------------
 #t pop=none jul-cc-pvdz guess=read ub97d empiricaldispersion=gd3
 ----------------------------------------------------------------
 -------------------------
 theory_abbreviation b97d3
 -------------------------
 Symbolic Z-matrix:
 Charge =  0 Multiplicity = 6

 SCF Done:  E(UB97D) =  -3034.60899881     A.U. after    3 cycles
 SCF Done:  E(UBHandHLYP) =  -3033.99982695     A.U. after   18 cycles
 SCF Done:  E(UBHandH) =  -3026.33461123     A.U. after   14 cycles
 SCF Done:  E(ULC-wPBE) =  -3033.48049099     A.U. after   17 cycles
 SCF Done:  E(UB-P86) =  -3034.65604992     A.U. after   17 cycles
 SCF Done:  E(UmPW1LYP) =  -3034.07617298     A.U. after   13 cycles
 SCF Done:  E(UmPW1PBE) =  -3033.91351439     A.U. after   14 cycles
 SCF Done:  E(UmPW3PBE) =  -3033.68648070     A.U. after   13 cycles
 SCF Done:  E(UM11) =  -3033.83797594     A.U. after   17 cycles
 SCF Done:  E(UN12SX) =  -3033.27801412     A.U. after   16 cycles
 SCF Done:  E(UMN12SX) =  -3033.68052707     A.U. after   16 cycles
 SCF Done:  E(UB1B95) =  -3034.40995500     A.U. after   14 cycles
 Normal termination of Gaussian 16 at Wed Feb 12 21:55:33 2020.
 SCF Done:  E(UB3PW91) =  -3034.00280855     A.U. after   14 cycles
 Normal termination of Gaussian 16 at Wed Feb 12 22:09:08 2020.
 SCF Done:  E(UM06L) =  -3034.22472312     A.U. after   17 cycles
 Normal termination of Gaussian 16 at Wed Feb 12 22:27:10 2020.
 Gaussian 16:  ES64L-G16RevA.03 25-Dec-2016

                         Standard orientation:
 ---------------------------------------------------------------------
 Center     Atomic      Atomic             Coordinates (Angstroms)
 Number     Number       Type             X           Y           Z
 ---------------------------------------------------------------------
      1          8           0        0.181056    0.438486   -0.872979
      2          6           0        0.919075    1.422148   -0.652296
      3          6           0        3.167100    0.032328    0.541345
      4          6           0        2.655449   -0.935958   -0.241920
      5          6           0        3.072024   -1.078802   -1.682308
      6         26           0       -1.482525   -0.173993    0.022695
      7         17           0       -2.070370   -1.956228   -1.070113
      8          6           0        1.708867   -2.002107    0.231083
      9         17           0       -2.742712    1.588345   -0.284946
     10         17           0       -1.046723   -0.505407    2.145055
     11          1           0        3.898654    0.704321    0.089720
     12          1           0        2.209213   -2.979657    0.201458
     13          1           0        1.338463   -1.844465    1.243725
     14          1           0        0.847135   -2.083335   -0.442737
     15          1           0        3.555210   -2.051787   -1.841749
     16          1           0        2.197524   -1.058157   -2.345957
     17          1           0        3.774831   -0.300219   -1.993911
     18          6           0        2.963625    0.209262    2.020990
     19          1           0        3.801745   -0.231197    2.578549
     20          1           0        2.932816    1.269722    2.295597
     21          1           0        2.044961   -0.258188    2.384020
     22          6           0        0.785143    2.229816    0.598516
     23          1           0        1.661660    2.854124    0.776905
     24          1           0       -0.089703    2.882212    0.458858
     25          1           0        0.580494    1.595093    1.461801
     26          6           0        1.753589    1.957564   -1.772705
     27          1           0        1.228152    2.842589   -2.160766
     28          1           0        2.733613    2.285933   -1.421597
     29          1           0        1.849878    1.229359   -2.576307
 ---------------------------------------------------------------------

 SCF Done:  E(UB97D3) =  -3034.64345224     A.U. after   16 cycles
 Normal termination of Gaussian 16 at Wed Feb 12 22:39:28 2020.
