 Gaussian 16, Revision A.03,

 --------------------------------
 #t pop=none jul-cc-pvdz upbe1pbe
 --------------------------------
 ------------------------
 theory_abbreviation pbe0
 ------------------------
 Symbolic Z-matrix:
 Charge =  0 Multiplicity = 6

 SCF Done:  E(UPBE1PBE) =  -3033.13011465     A.U. after   19 cycles
 Normal termination of Gaussian 16 at Tue Feb 11 13:58:10 2020.

 ---------------------------------------------------------------------
 #t pop=none jul-cc-pvdz guess=read upbe1pbe empiricaldispersion=gd3bj
 ---------------------------------------------------------------------
 -----------------------------
 theory_abbreviation pbe0_d3bj
 -----------------------------
 Symbolic Z-matrix:
 Charge =  0 Multiplicity = 6

 SCF Done:  E(UPBE1PBE) =  -3033.16715631     A.U. after    1 cycles
 Normal termination of Gaussian 16 at Tue Feb 11 13:59:21 2020.

 -----------------------------------------
 #t pop=none jul-cc-pvdz guess=read ub3lyp
 -----------------------------------------
 -------------------------
 theory_abbreviation b3lyp
 -------------------------
 Symbolic Z-matrix:
 Charge =  0 Multiplicity = 6

 SCF Done:  E(UB3LYP) =  -3034.34736727     A.U. after   13 cycles
 Normal termination of Gaussian 16 at Tue Feb 11 14:13:02 2020.

 -------------------------------------------------------------------
 #t pop=none jul-cc-pvdz guess=read ub3lyp empiricaldispersion=gd3bj
 -------------------------------------------------------------------
 ------------------------------
 theory_abbreviation b3lyp_d3bj
 ------------------------------
 Symbolic Z-matrix:
 Charge =  0 Multiplicity = 6

 SCF Done:  E(UB3LYP) =  -3034.41613623     A.U. after    1 cycles
 Normal termination of Gaussian 16 at Tue Feb 11 14:14:12 2020.

 ----------------------------------------
 #t pop=none jul-cc-pvdz guess=read ub97d
 ----------------------------------------
 ------------------------
 theory_abbreviation b97d
 ------------------------
 Symbolic Z-matrix:
 Charge =  0 Multiplicity = 6

 SCF Done:  E(UB97D) =  -3034.59919005     A.U. after   15 cycles

 ----------------------------------------------------------------
 #t pop=none jul-cc-pvdz guess=read ub97d empiricaldispersion=gd3
 ----------------------------------------------------------------
 -------------------------
 theory_abbreviation b97d3
 -------------------------
 Symbolic Z-matrix:
 Charge =  0 Multiplicity = 6

 SCF Done:  E(UB97D) =  -3034.60089245     A.U. after    1 cycles
 SCF Done:  E(UBHandHLYP) =  -3033.98918782     A.U. after   15 cycles
 SCF Done:  E(UBHandH) =  -3026.32844325     A.U. after   14 cycles
 SCF Done:  E(ULC-wPBE) =  -3033.47148082     A.U. after   19 cycles
 SCF Done:  E(UB-P86) =  -3034.64929724     A.U. after   17 cycles
 SCF Done:  E(UmPW1LYP) =  -3034.06567791     A.U. after   13 cycles
 SCF Done:  E(UmPW1PBE) =  -3033.90454802     A.U. after   14 cycles
 SCF Done:  E(UmPW3PBE) =  -3033.67744835     A.U. after   13 cycles
 SCF Done:  E(UM11) =  -3033.82887703     A.U. after   17 cycles
 SCF Done:  E(UN12SX) =  -3033.26894502     A.U. after   16 cycles
 SCF Done:  E(UMN12SX) =  -3033.67113280     A.U. after   16 cycles
 SCF Done:  E(UB1B95) =  -3034.40071969     A.U. after   14 cycles
 Normal termination of Gaussian 16 at Tue Feb 11 22:33:46 2020.
 SCF Done:  E(UB3PW91) =  -3033.99345638     A.U. after   13 cycles
 Normal termination of Gaussian 16 at Tue Feb 11 22:47:21 2020.
 SCF Done:  E(UM06L) =  -3034.21619780     A.U. after   17 cycles
 Normal termination of Gaussian 16 at Tue Feb 11 23:07:22 2020.
 Gaussian 16:  ES64L-G16RevA.03 25-Dec-2016

                         Standard orientation:
 ---------------------------------------------------------------------
 Center     Atomic      Atomic             Coordinates (Angstroms)
 Number     Number       Type             X           Y           Z
 ---------------------------------------------------------------------
      1          8           0        0.263579    0.279915   -0.803980
      2          6           0        1.057966    1.242708   -0.647762
      3          6           0        3.128057    0.045732    0.373009
      4          6           0        2.505418   -1.001591   -0.208689
      5          6           0        2.757042   -1.371334   -1.643379
      6         26           0       -1.463487   -0.127480    0.037222
      7         17           0       -2.102762   -1.980962   -0.908447
      8          6           0        1.598139   -1.948200    0.519334
      9         17           0       -2.603014    1.663443   -0.506094
     10         17           0       -1.170875   -0.274888    2.209137
     11          1           0        3.836952    0.606118   -0.236106
     12          1           0        2.129949   -2.894547    0.690106
     13          1           0        1.255346   -1.578046    1.485078
     14          1           0        0.721870   -2.195489   -0.090098
     15          1           0        3.128858   -2.402555   -1.698936
     16          1           0        1.821847   -1.348473   -2.217387
     17          1           0        3.494688   -0.722153   -2.123288
     18          6           0        3.142683    0.372720    1.842144
     19          1           0        4.005031   -0.107482    2.324460
     20          1           0        3.246786    1.448536    2.015920
     21          1           0        2.245998    0.030538    2.365098
     22          6           0        0.932037    2.154929    0.532200
     23          1           0        1.820822    2.770294    0.674202
     24          1           0        0.081846    2.817349    0.309259
     25          1           0        0.686338    1.609776    1.443643
     26          6           0        1.799946    1.743306   -1.851130
     27          1           0        1.140873    2.493858   -2.312571
     28          1           0        2.736254    2.237026   -1.587841
     29          1           0        1.963906    0.951702   -2.579975
 ---------------------------------------------------------------------

 SCF Done:  E(UB97D3) =  -3034.63572180     A.U. after   17 cycles
 Normal termination of Gaussian 16 at Tue Feb 11 23:20:52 2020.
