 Gaussian 16, Revision A.03,

 --------------------------------
 #t pop=none jul-cc-pvdz upbe1pbe
 --------------------------------
 ------------------------
 theory_abbreviation pbe0
 ------------------------
 Symbolic Z-matrix:
 Charge =  0 Multiplicity = 6

 SCF Done:  E(UPBE1PBE) =  -3033.13015487     A.U. after   20 cycles
 Normal termination of Gaussian 16 at Tue Feb 11 14:46:04 2020.

 ---------------------------------------------------------------------
 #t pop=none jul-cc-pvdz guess=read upbe1pbe empiricaldispersion=gd3bj
 ---------------------------------------------------------------------
 -----------------------------
 theory_abbreviation pbe0_d3bj
 -----------------------------
 Symbolic Z-matrix:
 Charge =  0 Multiplicity = 6

 SCF Done:  E(UPBE1PBE) =  -3033.16727338     A.U. after    1 cycles
 Normal termination of Gaussian 16 at Tue Feb 11 14:47:11 2020.

 -----------------------------------------
 #t pop=none jul-cc-pvdz guess=read ub3lyp
 -----------------------------------------
 -------------------------
 theory_abbreviation b3lyp
 -------------------------
 Symbolic Z-matrix:
 Charge =  0 Multiplicity = 6

 SCF Done:  E(UB3LYP) =  -3034.34729999     A.U. after   13 cycles
 Normal termination of Gaussian 16 at Tue Feb 11 15:00:16 2020.

 -------------------------------------------------------------------
 #t pop=none jul-cc-pvdz guess=read ub3lyp empiricaldispersion=gd3bj
 -------------------------------------------------------------------
 ------------------------------
 theory_abbreviation b3lyp_d3bj
 ------------------------------
 Symbolic Z-matrix:
 Charge =  0 Multiplicity = 6

 SCF Done:  E(UB3LYP) =  -3034.41623872     A.U. after    1 cycles
 Normal termination of Gaussian 16 at Tue Feb 11 15:01:22 2020.

 ----------------------------------------
 #t pop=none jul-cc-pvdz guess=read ub97d
 ----------------------------------------
 ------------------------
 theory_abbreviation b97d
 ------------------------
 Symbolic Z-matrix:
 Charge =  0 Multiplicity = 6

 SCF Done:  E(UB97D) =  -3034.59956331     A.U. after   15 cycles

 ----------------------------------------------------------------
 #t pop=none jul-cc-pvdz guess=read ub97d empiricaldispersion=gd3
 ----------------------------------------------------------------
 -------------------------
 theory_abbreviation b97d3
 -------------------------
 Symbolic Z-matrix:
 Charge =  0 Multiplicity = 6

 SCF Done:  E(UB97D) =  -3034.60107775     A.U. after    1 cycles
 SCF Done:  E(UBHandHLYP) =  -3033.98893307     A.U. after   15 cycles
 SCF Done:  E(UBHandH) =  -3026.32855598     A.U. after   14 cycles
 SCF Done:  E(ULC-wPBE) =  -3033.47130926     A.U. after   19 cycles
 SCF Done:  E(UB-P86) =  -3034.64959240     A.U. after   16 cycles
 SCF Done:  E(UmPW1LYP) =  -3034.06559823     A.U. after   13 cycles
 SCF Done:  E(UmPW1PBE) =  -3033.90455691     A.U. after   13 cycles
 SCF Done:  E(UmPW3PBE) =  -3033.67747833     A.U. after   13 cycles
 SCF Done:  E(UM11) =  -3033.82884041     A.U. after   17 cycles
 SCF Done:  E(UN12SX) =  -3033.26901291     A.U. after   16 cycles
 SCF Done:  E(UMN12SX) =  -3033.67109418     A.U. after   16 cycles
 SCF Done:  E(UB1B95) =  -3034.40065254     A.U. after   14 cycles
 Normal termination of Gaussian 16 at Tue Feb 11 23:19:15 2020.
 SCF Done:  E(UB3PW91) =  -3033.99344754     A.U. after   13 cycles
 Normal termination of Gaussian 16 at Tue Feb 11 23:32:46 2020.
 SCF Done:  E(UM06L) =  -3034.21616421     A.U. after   17 cycles
 Normal termination of Gaussian 16 at Tue Feb 11 23:51:36 2020.
 Gaussian 16:  ES64L-G16RevA.03 25-Dec-2016

                         Standard orientation:
 ---------------------------------------------------------------------
 Center     Atomic      Atomic             Coordinates (Angstroms)
 Number     Number       Type             X           Y           Z
 ---------------------------------------------------------------------
      1          8           0        0.254869    0.293509   -0.827977
      2          6           0        1.060535    1.246825   -0.657282
      3          6           0        3.046348    0.101702    0.459740
      4          6           0        2.546566   -0.978586   -0.179982
      5          6           0        2.927521   -1.305660   -1.596113
      6         26           0       -1.459117   -0.136743    0.021248
      7         17           0       -2.086663   -1.993550   -0.926777
      8          6           0        1.630041   -1.979626    0.455489
      9         17           0       -2.635158    1.638537   -0.491393
     10         17           0       -1.131679   -0.302351    2.188886
     11          1           0        3.771438    0.709638   -0.080582
     12          1           0        2.164535   -2.931414    0.580024
     13          1           0        1.250390   -1.675513    1.430099
     14          1           0        0.776851   -2.192175   -0.199601
     15          1           0        3.367999   -2.310124   -1.637274
     16          1           0        2.037742   -1.332746   -2.238787
     17          1           0        3.654249   -0.602525   -2.011793
     18          6           0        2.936877    0.386310    1.935067
     19          1           0        3.754774   -0.112214    2.472716
     20          1           0        3.028598    1.455746    2.146920
     21          1           0        1.998223    0.034647    2.370578
     22          6           0        0.891115    2.192703    0.491954
     23          1           0        1.776935    2.807416    0.654708
     24          1           0        0.055977    2.852334    0.211819
     25          1           0        0.602521    1.677454    1.407829
     26          6           0        1.830109    1.730922   -1.851842
     27          1           0        1.185196    2.481175   -2.332783
     28          1           0        2.764775    2.221256   -1.576646
     29          1           0        2.002719    0.931942   -2.570234
 ---------------------------------------------------------------------

 SCF Done:  E(UB97D3) =  -3034.63595706     A.U. after   17 cycles
 Normal termination of Gaussian 16 at Wed Feb 12 00:05:49 2020.
