 Gaussian 16, Revision A.03,

 --------------------------------
 #t pop=none jul-cc-pvdz upbe1pbe
 --------------------------------
 ------------------------
 theory_abbreviation pbe0
 ------------------------
 Symbolic Z-matrix:
 Charge =  0 Multiplicity = 6

 SCF Done:  E(UPBE1PBE) =  -3033.12226136     A.U. after   20 cycles
 Normal termination of Gaussian 16 at Tue Feb 11 13:58:39 2020.

 ---------------------------------------------------------------------
 #t pop=none jul-cc-pvdz guess=read upbe1pbe empiricaldispersion=gd3bj
 ---------------------------------------------------------------------
 -----------------------------
 theory_abbreviation pbe0_d3bj
 -----------------------------
 Symbolic Z-matrix:
 Charge =  0 Multiplicity = 6

 SCF Done:  E(UPBE1PBE) =  -3033.15946524     A.U. after    1 cycles
 Normal termination of Gaussian 16 at Tue Feb 11 13:59:52 2020.

 -----------------------------------------
 #t pop=none jul-cc-pvdz guess=read ub3lyp
 -----------------------------------------
 -------------------------
 theory_abbreviation b3lyp
 -------------------------
 Symbolic Z-matrix:
 Charge =  0 Multiplicity = 6

 SCF Done:  E(UB3LYP) =  -3034.33840238     A.U. after   13 cycles
 Normal termination of Gaussian 16 at Tue Feb 11 14:13:44 2020.

 -------------------------------------------------------------------
 #t pop=none jul-cc-pvdz guess=read ub3lyp empiricaldispersion=gd3bj
 -------------------------------------------------------------------
 ------------------------------
 theory_abbreviation b3lyp_d3bj
 ------------------------------
 Symbolic Z-matrix:
 Charge =  0 Multiplicity = 6

 SCF Done:  E(UB3LYP) =  -3034.40763148     A.U. after    1 cycles
 Normal termination of Gaussian 16 at Tue Feb 11 14:14:55 2020.

 ----------------------------------------
 #t pop=none jul-cc-pvdz guess=read ub97d
 ----------------------------------------
 ------------------------
 theory_abbreviation b97d
 ------------------------
 Symbolic Z-matrix:
 Charge =  0 Multiplicity = 6

 SCF Done:  E(UB97D) =  -3034.59190865     A.U. after   15 cycles

 ----------------------------------------------------------------
 #t pop=none jul-cc-pvdz guess=read ub97d empiricaldispersion=gd3
 ----------------------------------------------------------------
 -------------------------
 theory_abbreviation b97d3
 -------------------------
 Symbolic Z-matrix:
 Charge =  0 Multiplicity = 6

 SCF Done:  E(UB97D) =  -3034.59296311     A.U. after    1 cycles
 SCF Done:  E(UBHandHLYP) =  -3033.97858853     A.U. after   18 cycles
 SCF Done:  E(UBHandH) =  -3026.32074368     A.U. after   16 cycles
 SCF Done:  E(ULC-wPBE) =  -3033.46139248     A.U. after   19 cycles
 SCF Done:  E(UB-P86) =  -3034.64284062     A.U. after   17 cycles
 SCF Done:  E(UmPW1LYP) =  -3034.05640245     A.U. after   15 cycles
 SCF Done:  E(UmPW1PBE) =  -3033.89672097     A.U. after   16 cycles
 SCF Done:  E(UmPW3PBE) =  -3033.66970572     A.U. after   13 cycles
 SCF Done:  E(UM11) =  -3033.81924630     A.U. after   19 cycles
 SCF Done:  E(UN12SX) =  -3033.26131056     A.U. after   18 cycles
 SCF Done:  E(UMN12SX) =  -3033.66098121     A.U. after   16 cycles
 SCF Done:  E(UB1B95) =  -3034.39148807     A.U. after   14 cycles
 Normal termination of Gaussian 16 at Tue Feb 11 23:09:29 2020.
 SCF Done:  E(UB3PW91) =  -3033.98548967     A.U. after   16 cycles
 Normal termination of Gaussian 16 at Tue Feb 11 23:26:07 2020.
 SCF Done:  E(UM06L) =  -3034.20557842     A.U. after   18 cycles
 Normal termination of Gaussian 16 at Tue Feb 11 23:45:50 2020.
 Gaussian 16:  ES64L-G16RevA.03 25-Dec-2016

                         Standard orientation:
 ---------------------------------------------------------------------
 Center     Atomic      Atomic             Coordinates (Angstroms)
 Number     Number       Type             X           Y           Z
 ---------------------------------------------------------------------
      1          8           0       -0.253502   -0.268574   -0.780371
      2          6           0       -1.127184   -1.183656   -0.606859
      3          6           0       -2.813824   -0.299100    0.591184
      4          6           0       -2.696846    0.894403   -0.060960
      5          6           0       -3.414264    1.166472   -1.348356
      6         26           0        1.469800    0.155329   -0.025864
      7         17           0        1.997552    2.055897   -0.965922
      8          6           0       -1.792016    1.986293    0.403583
      9         17           0        2.696632   -1.570184   -0.588557
     10         17           0        1.214073    0.325600    2.157038
     11          1           0       -3.550861   -0.996690    0.196185
     12          1           0       -2.307472    2.953534    0.372821
     13          1           0       -1.385708    1.828765    1.402022
     14          1           0       -0.946769    2.064144   -0.296367
     15          1           0       -4.062445    2.043303   -1.220887
     16          1           0       -2.703566    1.423603   -2.145142
     17          1           0       -4.036652    0.329667   -1.672815
     18          6           0       -2.465000   -0.490812    2.051321
     19          1           0       -3.182131    0.062703    2.670418
     20          1           0       -2.536984   -1.541158    2.341142
     21          1           0       -1.464698   -0.136654    2.307501
     22          6           0       -0.830036   -2.282007    0.383759
     23          1           0       -1.697624   -2.911707    0.586777
     24          1           0       -0.056652   -2.897903   -0.096816
     25          1           0       -0.407554   -1.898828    1.311955
     26          6           0       -1.888905   -1.598176   -1.844278
     27          1           0       -1.216857   -2.271858   -2.393050
     28          1           0       -2.804967   -2.146187   -1.617401
     29          1           0       -2.097749   -0.747531   -2.490786
 ---------------------------------------------------------------------

 SCF Done:  E(UB97D3) =  -3034.62828220     A.U. after   15 cycles
 Normal termination of Gaussian 16 at Tue Feb 11 23:57:42 2020.
