 Gaussian 16, Revision A.03,

 --------------------------------
 #t pop=none jul-cc-pvdz upbe1pbe
 --------------------------------
 ------------------------
 theory_abbreviation pbe0
 ------------------------
 Symbolic Z-matrix:
 Charge =  0 Multiplicity = 6

 SCF Done:  E(UPBE1PBE) =  -3033.10768720     A.U. after   20 cycles
 Normal termination of Gaussian 16 at Tue Feb 11 13:57:13 2020.

 ---------------------------------------------------------------------
 #t pop=none jul-cc-pvdz guess=read upbe1pbe empiricaldispersion=gd3bj
 ---------------------------------------------------------------------
 -----------------------------
 theory_abbreviation pbe0_d3bj
 -----------------------------
 Symbolic Z-matrix:
 Charge =  0 Multiplicity = 6

 SCF Done:  E(UPBE1PBE) =  -3033.14473934     A.U. after    1 cycles
 Normal termination of Gaussian 16 at Tue Feb 11 13:58:24 2020.

 -----------------------------------------
 #t pop=none jul-cc-pvdz guess=read ub3lyp
 -----------------------------------------
 -------------------------
 theory_abbreviation b3lyp
 -------------------------
 Symbolic Z-matrix:
 Charge =  0 Multiplicity = 6

 SCF Done:  E(UB3LYP) =  -3034.32043339     A.U. after   14 cycles
 Normal termination of Gaussian 16 at Tue Feb 11 14:13:24 2020.

 -------------------------------------------------------------------
 #t pop=none jul-cc-pvdz guess=read ub3lyp empiricaldispersion=gd3bj
 -------------------------------------------------------------------
 ------------------------------
 theory_abbreviation b3lyp_d3bj
 ------------------------------
 Symbolic Z-matrix:
 Charge =  0 Multiplicity = 6

 SCF Done:  E(UB3LYP) =  -3034.38941781     A.U. after    1 cycles
 Normal termination of Gaussian 16 at Tue Feb 11 14:14:37 2020.

 ----------------------------------------
 #t pop=none jul-cc-pvdz guess=read ub97d
 ----------------------------------------
 ------------------------
 theory_abbreviation b97d
 ------------------------
 Symbolic Z-matrix:
 Charge =  0 Multiplicity = 6

 SCF Done:  E(UB97D) =  -3034.56995983     A.U. after   15 cycles

 ----------------------------------------------------------------
 #t pop=none jul-cc-pvdz guess=read ub97d empiricaldispersion=gd3
 ----------------------------------------------------------------
 -------------------------
 theory_abbreviation b97d3
 -------------------------
 Symbolic Z-matrix:
 Charge =  0 Multiplicity = 6

 SCF Done:  E(UB97D) =  -3034.57116555     A.U. after    2 cycles
 SCF Done:  E(UBHandHLYP) =  -3033.96539397     A.U. after   15 cycles
 SCF Done:  E(UBHandH) =  -3026.31221895     A.U. after   14 cycles
 SCF Done:  E(ULC-wPBE) =  -3033.45256487     A.U. after   16 cycles
 SCF Done:  E(UB-P86) =  -3034.62547080     A.U. after   16 cycles
 SCF Done:  E(UmPW1LYP) =  -3034.03913477     A.U. after   14 cycles
 SCF Done:  E(UmPW1PBE) =  -3033.88208252     A.U. after   14 cycles
 SCF Done:  E(UmPW3PBE) =  -3033.65405634     A.U. after   12 cycles
 SCF Done:  E(UM11) =  -3033.80419869     A.U. after   16 cycles
 SCF Done:  E(UN12SX) =  -3033.24780909     A.U. after   15 cycles
 SCF Done:  E(UMN12SX) =  -3033.64472102     A.U. after   16 cycles
 SCF Done:  E(UB1B95) =  -3034.37339930     A.U. after   14 cycles
 Normal termination of Gaussian 16 at Tue Feb 11 22:30:47 2020.
 SCF Done:  E(UB3PW91) =  -3033.96938955     A.U. after   13 cycles
 Normal termination of Gaussian 16 at Tue Feb 11 22:44:29 2020.
 SCF Done:  E(UM06L) =  -3034.18500087     A.U. after   17 cycles
 Normal termination of Gaussian 16 at Tue Feb 11 23:05:17 2020.
 Gaussian 16:  ES64L-G16RevA.03 25-Dec-2016

                         Standard orientation:
 ---------------------------------------------------------------------
 Center     Atomic      Atomic             Coordinates (Angstroms)
 Number     Number       Type             X           Y           Z
 ---------------------------------------------------------------------
      1          8           0       -0.317360   -0.318072   -0.647247
      2          6           0       -1.415354   -1.196446   -0.455932
      3          6           0       -2.724719   -0.170558   -0.105055
      4          6           0       -2.046594    1.142995   -0.241044
      5          6           0       -1.950373    1.809767   -1.551132
      6         26           0        1.366675    0.029956    0.019062
      7         17           0        1.694092    2.091530   -0.770157
      8          6           0       -1.573263    1.878660    0.942137
      9         17           0        2.756874   -1.524945   -0.659852
     10         17           0        1.187078    0.094643    2.247399
     11          1           0       -3.431015   -0.290708   -0.931841
     12          1           0       -2.470320    2.284109    1.440417
     13          1           0       -1.088787    1.216790    1.668043
     14          1           0       -0.900062    2.696743    0.682778
     15          1           0       -2.578161    2.715350   -1.506386
     16          1           0       -0.918287    2.153815   -1.701113
     17          1           0       -2.277495    1.183765   -2.380997
     18          6           0       -3.425055   -0.429381    1.226505
     19          1           0       -4.236589    0.289523    1.387963
     20          1           0       -3.868937   -1.428139    1.220019
     21          1           0       -2.743746   -0.373083    2.078103
     22          6           0       -1.146368   -2.179205    0.672051
     23          1           0       -1.982194   -2.869124    0.822325
     24          1           0       -0.264263   -2.766569    0.390921
     25          1           0       -0.914603   -1.672676    1.610377
     26          6           0       -1.701311   -1.911921   -1.769874
     27          1           0       -0.826426   -2.515170   -2.034191
     28          1           0       -2.573957   -2.569302   -1.687373
     29          1           0       -1.868344   -1.193963   -2.578262
 ---------------------------------------------------------------------

 SCF Done:  E(UB97D3) =  -3034.60615431     A.U. after   14 cycles
 Normal termination of Gaussian 16 at Tue Feb 11 23:16:46 2020.
