 Gaussian 16, Revision A.03,

 --------------------------------
 #t pop=none jul-cc-pvdz upbe1pbe
 --------------------------------
 ------------------------
 theory_abbreviation pbe0
 ------------------------
 Symbolic Z-matrix:
 Charge =  0 Multiplicity = 6

 SCF Done:  E(UPBE1PBE) =  -3033.10487034     A.U. after   21 cycles
 Normal termination of Gaussian 16 at Tue Feb 11 13:59:13 2020.

 ---------------------------------------------------------------------
 #t pop=none jul-cc-pvdz guess=read upbe1pbe empiricaldispersion=gd3bj
 ---------------------------------------------------------------------
 -----------------------------
 theory_abbreviation pbe0_d3bj
 -----------------------------
 Symbolic Z-matrix:
 Charge =  0 Multiplicity = 6

 SCF Done:  E(UPBE1PBE) =  -3033.14208201     A.U. after    1 cycles
 Normal termination of Gaussian 16 at Tue Feb 11 14:00:26 2020.

 -----------------------------------------
 #t pop=none jul-cc-pvdz guess=read ub3lyp
 -----------------------------------------
 -------------------------
 theory_abbreviation b3lyp
 -------------------------
 Symbolic Z-matrix:
 Charge =  0 Multiplicity = 6

 SCF Done:  E(UB3LYP) =  -3034.31726727     A.U. after   14 cycles
 Normal termination of Gaussian 16 at Tue Feb 11 14:15:22 2020.

 -------------------------------------------------------------------
 #t pop=none jul-cc-pvdz guess=read ub3lyp empiricaldispersion=gd3bj
 -------------------------------------------------------------------
 ------------------------------
 theory_abbreviation b3lyp_d3bj
 ------------------------------
 Symbolic Z-matrix:
 Charge =  0 Multiplicity = 6

 SCF Done:  E(UB3LYP) =  -3034.38663819     A.U. after    1 cycles
 Normal termination of Gaussian 16 at Tue Feb 11 14:16:32 2020.

 ----------------------------------------
 #t pop=none jul-cc-pvdz guess=read ub97d
 ----------------------------------------
 ------------------------
 theory_abbreviation b97d
 ------------------------
 Symbolic Z-matrix:
 Charge =  0 Multiplicity = 6

 SCF Done:  E(UB97D) =  -3034.56971019     A.U. after   17 cycles

 ----------------------------------------------------------------
 #t pop=none jul-cc-pvdz guess=read ub97d empiricaldispersion=gd3
 ----------------------------------------------------------------
 -------------------------
 theory_abbreviation b97d3
 -------------------------
 Symbolic Z-matrix:
 Charge =  0 Multiplicity = 6

 SCF Done:  E(UB97D) =  -3034.56978626     A.U. after    1 cycles
 SCF Done:  E(UBHandHLYP) =  -3033.96073466     A.U. after   17 cycles
 SCF Done:  E(UBHandH) =  -3026.30903411     A.U. after   15 cycles
 SCF Done:  E(ULC-wPBE) =  -3033.44618258     A.U. after   18 cycles
 SCF Done:  E(UB-P86) =  -3034.62271692     A.U. after   15 cycles
 SCF Done:  E(UmPW1LYP) =  -3034.03569592     A.U. after   13 cycles
 SCF Done:  E(UmPW1PBE) =  -3033.87920363     A.U. after   13 cycles
 SCF Done:  E(UmPW3PBE) =  -3033.65135114     A.U. after   15 cycles
 SCF Done:  E(UM11) =  -3033.80318596     A.U. after   19 cycles
 SCF Done:  E(UN12SX) =  -3033.24495880     A.U. after   17 cycles
 SCF Done:  E(UMN12SX) =  -3033.64317128     A.U. after   16 cycles
 SCF Done:  E(UB1B95) =  -3034.37279081     A.U. after   16 cycles
 Normal termination of Gaussian 16 at Tue Feb 11 22:59:50 2020.
 SCF Done:  E(UB3PW91) =  -3033.96662915     A.U. after   15 cycles
 Normal termination of Gaussian 16 at Tue Feb 11 23:15:19 2020.
 SCF Done:  E(UM06L) =  -3034.18495970     A.U. after   18 cycles
 Normal termination of Gaussian 16 at Tue Feb 11 23:35:15 2020.
 Gaussian 16:  ES64L-G16RevA.03 25-Dec-2016

                         Standard orientation:
 ---------------------------------------------------------------------
 Center     Atomic      Atomic             Coordinates (Angstroms)
 Number     Number       Type             X           Y           Z
 ---------------------------------------------------------------------
      1          8           0       -0.335687   -0.149732   -0.680147
      2          6           0       -1.284612   -1.081657   -0.552894
      3          6           0       -2.782758   -0.261072    0.279091
      4          6           0       -2.365725    1.010557   -0.139184
      5          6           0       -2.689578    1.545968   -1.486209
      6         26           0        1.390016    0.095672   -0.002247
      7         17           0        1.919435    2.109845   -0.727595
      8          6           0       -1.567626    1.905137    0.729867
      9         17           0        2.622076   -1.564416   -0.751012
     10         17           0        1.187204    0.043436    2.220436
     11          1           0       -3.590708   -0.687238   -0.313787
     12          1           0       -2.289190    2.573991    1.229001
     13          1           0       -1.014234    1.380187    1.507530
     14          1           0       -0.883257    2.528524    0.148085
     15          1           0       -3.035979    2.582172   -1.386609
     16          1           0       -1.756523    1.589656   -2.064551
     17          1           0       -3.438394    0.962886   -2.023194
     18          6           0       -2.868867   -0.585048    1.761485
     19          1           0       -3.669310    0.004953    2.223424
     20          1           0       -3.110758   -1.639260    1.910654
     21          1           0       -1.941114   -0.372550    2.296684
     22          6           0       -0.943409   -2.238565    0.370224
     23          1           0       -1.771327   -2.943431    0.477353
     24          1           0       -0.102749   -2.758711   -0.107404
     25          1           0       -0.603474   -1.901536    1.349003
     26          6           0       -1.814503   -1.555558   -1.900082
     27          1           0       -0.988541   -2.092811   -2.380706
     28          1           0       -2.661775   -2.238630   -1.795267
     29          1           0       -2.083273   -0.727086   -2.555490
 ---------------------------------------------------------------------

 SCF Done:  E(UB97D3) =  -3034.60432680     A.U. after   16 cycles
 Normal termination of Gaussian 16 at Tue Feb 11 23:47:59 2020.
