 Gaussian 16, Revision A.03,

 --------------------------------
 #t pop=none jul-cc-pvdz upbe1pbe
 --------------------------------
 ------------------------
 theory_abbreviation pbe0
 ------------------------
 Symbolic Z-matrix:
 Charge =  0 Multiplicity = 6

 SCF Done:  E(UPBE1PBE) =  -3033.10583147     A.U. after   21 cycles
 Normal termination of Gaussian 16 at Tue Feb 11 20:04:46 2020.

 ---------------------------------------------------------------------
 #t pop=none jul-cc-pvdz guess=read upbe1pbe empiricaldispersion=gd3bj
 ---------------------------------------------------------------------
 -----------------------------
 theory_abbreviation pbe0_d3bj
 -----------------------------
 Symbolic Z-matrix:
 Charge =  0 Multiplicity = 6

 SCF Done:  E(UPBE1PBE) =  -3033.14292945     A.U. after    1 cycles
 Normal termination of Gaussian 16 at Tue Feb 11 20:05:53 2020.

 -----------------------------------------
 #t pop=none jul-cc-pvdz guess=read ub3lyp
 -----------------------------------------
 -------------------------
 theory_abbreviation b3lyp
 -------------------------
 Symbolic Z-matrix:
 Charge =  0 Multiplicity = 6

 SCF Done:  E(UB3LYP) =  -3034.31793824     A.U. after   14 cycles
 Normal termination of Gaussian 16 at Tue Feb 11 20:19:41 2020.

 -------------------------------------------------------------------
 #t pop=none jul-cc-pvdz guess=read ub3lyp empiricaldispersion=gd3bj
 -------------------------------------------------------------------
 ------------------------------
 theory_abbreviation b3lyp_d3bj
 ------------------------------
 Symbolic Z-matrix:
 Charge =  0 Multiplicity = 6

 SCF Done:  E(UB3LYP) =  -3034.38710051     A.U. after    1 cycles
 Normal termination of Gaussian 16 at Tue Feb 11 20:20:48 2020.

 ----------------------------------------
 #t pop=none jul-cc-pvdz guess=read ub97d
 ----------------------------------------
 ------------------------
 theory_abbreviation b97d
 ------------------------
 Symbolic Z-matrix:
 Charge =  0 Multiplicity = 6

 SCF Done:  E(UB97D) =  -3034.56967399     A.U. after   16 cycles

 ----------------------------------------------------------------
 #t pop=none jul-cc-pvdz guess=read ub97d empiricaldispersion=gd3
 ----------------------------------------------------------------
 -------------------------
 theory_abbreviation b97d3
 -------------------------
 Symbolic Z-matrix:
 Charge =  0 Multiplicity = 6

 SCF Done:  E(UB97D) =  -3034.56984032     A.U. after    3 cycles
 SCF Done:  E(UBHandHLYP) =  -3033.96216351     A.U. after   17 cycles
 SCF Done:  E(UBHandH) =  -3026.31050699     A.U. after   14 cycles
 SCF Done:  E(ULC-wPBE) =  -3033.44819662     A.U. after   18 cycles
 SCF Done:  E(UB-P86) =  -3034.62300713     A.U. after   17 cycles
 SCF Done:  E(UmPW1LYP) =  -3034.03647843     A.U. after   14 cycles
 SCF Done:  E(UmPW1PBE) =  -3033.88012964     A.U. after   15 cycles
 SCF Done:  E(UmPW3PBE) =  -3033.65215176     A.U. after   15 cycles
 SCF Done:  E(UM11) =  -3033.80411653     A.U. after   17 cycles
 SCF Done:  E(UN12SX) =  -3033.24602480     A.U. after   17 cycles
 SCF Done:  E(UMN12SX) =  -3033.64410440     A.U. after   16 cycles
 SCF Done:  E(UB1B95) =  -3034.37332898     A.U. after   16 cycles
 Normal termination of Gaussian 16 at Wed Feb 12 04:32:47 2020.
 SCF Done:  E(UB3PW91) =  -3033.96741768     A.U. after   15 cycles
 Normal termination of Gaussian 16 at Wed Feb 12 04:47:29 2020.
 SCF Done:  E(UM06L) =  -3034.18544289     A.U. after   18 cycles
 Normal termination of Gaussian 16 at Wed Feb 12 05:06:44 2020.
 Gaussian 16:  ES64L-G16RevA.03 25-Dec-2016

                         Standard orientation:
 ---------------------------------------------------------------------
 Center     Atomic      Atomic             Coordinates (Angstroms)
 Number     Number       Type             X           Y           Z
 ---------------------------------------------------------------------
      1          8           0       -0.314151   -0.217639   -0.707981
      2          6           0       -1.293093   -1.129457   -0.525961
      3          6           0       -2.663504   -0.344641    0.337775
      4          6           0       -2.424325    0.981255   -0.108148
      5          6           0       -2.890796    1.463327   -1.427574
      6         26           0        1.384226    0.111829   -0.032396
      7         17           0        1.823151    2.148856   -0.770165
      8          6           0       -1.625105    1.933484    0.686218
      9         17           0        2.720800   -1.489668   -0.725408
     10         17           0        1.165025    0.102070    2.197223
     11          1           0       -3.521504   -0.805750   -0.153016
     12          1           0       -2.349328    2.538797    1.259777
     13          1           0       -0.963178    1.451319    1.405493
     14          1           0       -1.054614    2.615759    0.049678
     15          1           0       -3.237755    2.500330   -1.348281
     16          1           0       -2.004180    1.491790   -2.080394
     17          1           0       -3.662396    0.840503   -1.880608
     18          6           0       -2.634866   -0.603265    1.842479
     19          1           0       -3.402576   -0.000032    2.340036
     20          1           0       -2.856506   -1.652265    2.047037
     21          1           0       -1.668342   -0.368354    2.292387
     22          6           0       -0.884705   -2.315437    0.342219
     23          1           0       -1.703872   -3.024246    0.490895
     24          1           0       -0.078549   -2.822288   -0.201878
     25          1           0       -0.482597   -2.001126    1.305198
     26          6           0       -1.857346   -1.600012   -1.866871
     27          1           0       -1.047187   -2.128285   -2.380467
     28          1           0       -2.699686   -2.286848   -1.741361
     29          1           0       -2.154561   -0.768663   -2.507236
 ---------------------------------------------------------------------

 SCF Done:  E(UB97D3) =  -3034.60436787     A.U. after   16 cycles
 Normal termination of Gaussian 16 at Wed Feb 12 05:19:12 2020.
