 Gaussian 16, Revision A.03,

 --------------------------------
 #t pop=none jul-cc-pvdz upbe1pbe
 --------------------------------
 ------------------------
 theory_abbreviation pbe0
 ------------------------
 Symbolic Z-matrix:
 Charge =  0 Multiplicity = 6

 SCF Done:  E(UPBE1PBE) =  -3033.11105369     A.U. after   21 cycles
 Normal termination of Gaussian 16 at Tue Feb 11 13:59:07 2020.

 ---------------------------------------------------------------------
 #t pop=none jul-cc-pvdz guess=read upbe1pbe empiricaldispersion=gd3bj
 ---------------------------------------------------------------------
 -----------------------------
 theory_abbreviation pbe0_d3bj
 -----------------------------
 Symbolic Z-matrix:
 Charge =  0 Multiplicity = 6

 SCF Done:  E(UPBE1PBE) =  -3033.14735729     A.U. after    1 cycles
 Normal termination of Gaussian 16 at Tue Feb 11 14:00:20 2020.

 -----------------------------------------
 #t pop=none jul-cc-pvdz guess=read ub3lyp
 -----------------------------------------
 -------------------------
 theory_abbreviation b3lyp
 -------------------------
 Symbolic Z-matrix:
 Charge =  0 Multiplicity = 6

 SCF Done:  E(UB3LYP) =  -3034.32292312     A.U. after   15 cycles
 Normal termination of Gaussian 16 at Tue Feb 11 14:16:42 2020.

 -------------------------------------------------------------------
 #t pop=none jul-cc-pvdz guess=read ub3lyp empiricaldispersion=gd3bj
 -------------------------------------------------------------------
 ------------------------------
 theory_abbreviation b3lyp_d3bj
 ------------------------------
 Symbolic Z-matrix:
 Charge =  0 Multiplicity = 6

 SCF Done:  E(UB3LYP) =  -3034.39067145     A.U. after    1 cycles
 Normal termination of Gaussian 16 at Tue Feb 11 14:17:54 2020.

 ----------------------------------------
 #t pop=none jul-cc-pvdz guess=read ub97d
 ----------------------------------------
 ------------------------
 theory_abbreviation b97d
 ------------------------
 Symbolic Z-matrix:
 Charge =  0 Multiplicity = 6

 SCF Done:  E(UB97D) =  -3034.57472788     A.U. after   16 cycles

 ----------------------------------------------------------------
 #t pop=none jul-cc-pvdz guess=read ub97d empiricaldispersion=gd3
 ----------------------------------------------------------------
 -------------------------
 theory_abbreviation b97d3
 -------------------------
 Symbolic Z-matrix:
 Charge =  0 Multiplicity = 6

 SCF Done:  E(UB97D) =  -3034.57513086     A.U. after    1 cycles
 SCF Done:  E(UBHandHLYP) =  -3033.96468194     A.U. after   17 cycles
 SCF Done:  E(UBHandH) =  -3026.31408654     A.U. after   16 cycles
 SCF Done:  E(ULC-wPBE) =  -3033.45117438     A.U. after   17 cycles
 SCF Done:  E(UB-P86) =  -3034.62882572     A.U. after   17 cycles
 SCF Done:  E(UmPW1LYP) =  -3034.04077955     A.U. after   15 cycles
 SCF Done:  E(UmPW1PBE) =  -3033.88547602     A.U. after   15 cycles
 SCF Done:  E(UmPW3PBE) =  -3033.65783287     A.U. after   15 cycles
 SCF Done:  E(UM11) =  -3033.80574941     A.U. after   18 cycles
 SCF Done:  E(UN12SX) =  -3033.25070960     A.U. after   15 cycles
 SCF Done:  E(UMN12SX) =  -3033.64600384     A.U. after   16 cycles
 SCF Done:  E(UB1B95) =  -3034.37752837     A.U. after   16 cycles
 Normal termination of Gaussian 16 at Tue Feb 11 23:21:44 2020.
 SCF Done:  E(UB3PW91) =  -3033.97315072     A.U. after   15 cycles
 Normal termination of Gaussian 16 at Tue Feb 11 23:37:01 2020.
 SCF Done:  E(UM06L) =  -3034.18935908     A.U. after   16 cycles
 Normal termination of Gaussian 16 at Tue Feb 11 23:54:08 2020.
 Gaussian 16:  ES64L-G16RevA.03 25-Dec-2016

                         Standard orientation:
 ---------------------------------------------------------------------
 Center     Atomic      Atomic             Coordinates (Angstroms)
 Number     Number       Type             X           Y           Z
 ---------------------------------------------------------------------
      1          8           0       -0.344760   -0.099053   -0.425585
      2          6           0       -1.242935   -1.081682   -0.274130
      3          6           0       -2.546020   -0.426863    0.693177
      4          6           0       -2.884386    0.736434   -0.048382
      5          6           0       -3.930897    0.700153   -1.102890
      6         26           0        1.474901    0.173047   -0.080271
      7         17           0        1.748493    2.236616   -0.812210
      8          6           0       -2.122283    1.968324    0.114256
      9         17           0        2.548552   -1.407328   -1.171890
     10         17           0        1.755375    0.037407    2.114102
     11          1           0       -3.308254   -1.204806    0.610139
     12          1           0       -2.520827    2.819328   -0.439549
     13          1           0       -1.912797    2.224558    1.155911
     14          1           0       -1.124811    1.682233   -0.304113
     15          1           0       -4.763425    1.333079   -0.758459
     16          1           0       -3.570990    1.158392   -2.032435
     17          1           0       -4.316457   -0.300859   -1.298730
     18          6           0       -2.046177   -0.215735    2.124344
     19          1           0       -2.727983    0.445268    2.669585
     20          1           0       -2.012579   -1.167126    2.657098
     21          1           0       -1.044009    0.217840    2.146595
     22          6           0       -0.735264   -2.272249    0.552858
     23          1           0       -1.534404   -2.986348    0.772828
     24          1           0        0.025313   -2.772235   -0.056710
     25          1           0       -0.257370   -1.951085    1.477957
     26          6           0       -1.783384   -1.556663   -1.626230
     27          1           0       -0.972519   -2.096140   -2.125367
     28          1           0       -2.636238   -2.235331   -1.521649
     29          1           0       -2.055050   -0.717698   -2.269431
 ---------------------------------------------------------------------

 SCF Done:  E(UB97D3) =  -3034.60960540     A.U. after   16 cycles
 Normal termination of Gaussian 16 at Wed Feb 12 00:07:15 2020.
