 Gaussian 16, Revision A.03,

 --------------------------------
 #t pop=none jul-cc-pvdz upbe1pbe
 --------------------------------
 ------------------------
 theory_abbreviation pbe0
 ------------------------
 Symbolic Z-matrix:
 Charge =  0 Multiplicity = 6

 SCF Done:  E(UPBE1PBE) =  -3033.09262445     A.U. after   22 cycles
 Normal termination of Gaussian 16 at Wed Feb 12 07:03:44 2020.

 ---------------------------------------------------------------------
 #t pop=none jul-cc-pvdz guess=read upbe1pbe empiricaldispersion=gd3bj
 ---------------------------------------------------------------------
 -----------------------------
 theory_abbreviation pbe0_d3bj
 -----------------------------
 Symbolic Z-matrix:
 Charge =  0 Multiplicity = 6

 SCF Done:  E(UPBE1PBE) =  -3033.12991530     A.U. after    1 cycles
 Normal termination of Gaussian 16 at Wed Feb 12 07:04:52 2020.

 -----------------------------------------
 #t pop=none jul-cc-pvdz guess=read ub3lyp
 -----------------------------------------
 -------------------------
 theory_abbreviation b3lyp
 -------------------------
 Symbolic Z-matrix:
 Charge =  0 Multiplicity = 6

 SCF Done:  E(UB3LYP) =  -3034.30638693     A.U. after   14 cycles
 Normal termination of Gaussian 16 at Wed Feb 12 07:19:11 2020.

 -------------------------------------------------------------------
 #t pop=none jul-cc-pvdz guess=read ub3lyp empiricaldispersion=gd3bj
 -------------------------------------------------------------------
 ------------------------------
 theory_abbreviation b3lyp_d3bj
 ------------------------------
 Symbolic Z-matrix:
 Charge =  0 Multiplicity = 6

 SCF Done:  E(UB3LYP) =  -3034.37577565     A.U. after    1 cycles
 Normal termination of Gaussian 16 at Wed Feb 12 07:20:19 2020.

 ----------------------------------------
 #t pop=none jul-cc-pvdz guess=read ub97d
 ----------------------------------------
 ------------------------
 theory_abbreviation b97d
 ------------------------
 Symbolic Z-matrix:
 Charge =  0 Multiplicity = 6

 SCF Done:  E(UB97D) =  -3034.55887119     A.U. after   15 cycles

 ----------------------------------------------------------------
 #t pop=none jul-cc-pvdz guess=read ub97d empiricaldispersion=gd3
 ----------------------------------------------------------------
 -------------------------
 theory_abbreviation b97d3
 -------------------------
 Symbolic Z-matrix:
 Charge =  0 Multiplicity = 6

 SCF Done:  E(UB97D) =  -3034.56015972     A.U. after    1 cycles
 SCF Done:  E(UBHandHLYP) =  -3033.94714153     A.U. after   18 cycles
 SCF Done:  E(UBHandH) =  -3026.29296497     A.U. after   16 cycles
 SCF Done:  E(ULC-wPBE) =  -3033.43307786     A.U. after   19 cycles
 SCF Done:  E(UB-P86) =  -3034.61413708     A.U. after   15 cycles
 SCF Done:  E(UmPW1LYP) =  -3034.02439482     A.U. after   15 cycles
 SCF Done:  E(UmPW1PBE) =  -3033.86716543     A.U. after   15 cycles
 SCF Done:  E(UmPW3PBE) =  -3033.63978888     A.U. after   13 cycles
 SCF Done:  E(UM11) =  -3033.78691226     A.U. after   18 cycles
 SCF Done:  E(UN12SX) =  -3033.23291694     A.U. after   16 cycles
 SCF Done:  E(UMN12SX) =  -3033.62948983     A.U. after   15 cycles
 SCF Done:  E(UB1B95) =  -3034.35975815     A.U. after   15 cycles
 Normal termination of Gaussian 16 at Wed Feb 12 15:46:51 2020.
 SCF Done:  E(UB3PW91) =  -3033.95518556     A.U. after   14 cycles
 Normal termination of Gaussian 16 at Wed Feb 12 16:01:09 2020.
 SCF Done:  E(UM06L) =  -3034.17112057     A.U. after   18 cycles
 Normal termination of Gaussian 16 at Wed Feb 12 16:20:55 2020.
 Gaussian 16:  ES64L-G16RevA.03 25-Dec-2016

                         Standard orientation:
 ---------------------------------------------------------------------
 Center     Atomic      Atomic             Coordinates (Angstroms)
 Number     Number       Type             X           Y           Z
 ---------------------------------------------------------------------
      1          8           0       -0.399956   -0.123145   -0.469305
      2          6           0       -1.315724   -1.168443   -0.396941
      3          6           0       -2.956544   -0.048373   -0.166393
      4          6           0       -2.051597    1.076249   -0.279399
      5          6           0       -1.881688    1.755976   -1.592658
      6         26           0        1.396613    0.055739    0.052596
      7         17           0        1.897645    2.019816   -0.827294
      8          6           0       -1.588230    1.817622    0.924985
      9         17           0        2.424443   -1.714972   -0.751137
     10         17           0        1.385520    0.112472    2.266263
     11          1           0       -3.525157   -0.238615   -1.075898
     12          1           0       -2.417363    2.478226    1.224894
     13          1           0       -1.366644    1.161362    1.767066
     14          1           0       -0.713727    2.432777    0.706496
     15          1           0       -2.617710    2.575834   -1.615533
     16          1           0       -0.883069    2.186725   -1.693131
     17          1           0       -2.096510    1.093063   -2.432660
     18          6           0       -3.711393   -0.332262    1.111499
     19          1           0       -4.540882    0.374336    1.246312
     20          1           0       -4.143433   -1.337090    1.078048
     21          1           0       -3.078340   -0.272217    1.999848
     22          6           0       -1.179321   -2.041237    0.817387
     23          1           0       -2.006654   -2.750839    0.901028
     24          1           0       -0.246555   -2.612297    0.704155
     25          1           0       -1.088297   -1.455691    1.733415
     26          6           0       -1.475415   -1.888401   -1.708247
     27          1           0       -0.524529   -2.399400   -1.914346
     28          1           0       -2.277242   -2.631202   -1.668571
     29          1           0       -1.656062   -1.190184   -2.528713
 ---------------------------------------------------------------------

 SCF Done:  E(UB97D3) =  -3034.59544153     A.U. after   16 cycles
 Normal termination of Gaussian 16 at Wed Feb 12 16:33:43 2020.
