 Gaussian 16, Revision A.03,

 --------------------------------
 #t pop=none jul-cc-pvdz upbe1pbe
 --------------------------------
 ------------------------
 theory_abbreviation pbe0
 ------------------------
 Symbolic Z-matrix:
 Charge =  0 Multiplicity = 6

 SCF Done:  E(UPBE1PBE) =  -3033.11043447     A.U. after   21 cycles
 Normal termination of Gaussian 16 at Tue Feb 11 13:57:46 2020.

 ---------------------------------------------------------------------
 #t pop=none jul-cc-pvdz guess=read upbe1pbe empiricaldispersion=gd3bj
 ---------------------------------------------------------------------
 -----------------------------
 theory_abbreviation pbe0_d3bj
 -----------------------------
 Symbolic Z-matrix:
 Charge =  0 Multiplicity = 6

 SCF Done:  E(UPBE1PBE) =  -3033.14690616     A.U. after    1 cycles
 Normal termination of Gaussian 16 at Tue Feb 11 13:59:06 2020.

 -----------------------------------------
 #t pop=none jul-cc-pvdz guess=read ub3lyp
 -----------------------------------------
 -------------------------
 theory_abbreviation b3lyp
 -------------------------
 Symbolic Z-matrix:
 Charge =  0 Multiplicity = 6

 SCF Done:  E(UB3LYP) =  -3034.32260907     A.U. after   15 cycles
 Normal termination of Gaussian 16 at Tue Feb 11 14:14:36 2020.

 -------------------------------------------------------------------
 #t pop=none jul-cc-pvdz guess=read ub3lyp empiricaldispersion=gd3bj
 -------------------------------------------------------------------
 ------------------------------
 theory_abbreviation b3lyp_d3bj
 ------------------------------
 Symbolic Z-matrix:
 Charge =  0 Multiplicity = 6

 SCF Done:  E(UB3LYP) =  -3034.39078414     A.U. after    1 cycles
 Normal termination of Gaussian 16 at Tue Feb 11 14:15:45 2020.

 ----------------------------------------
 #t pop=none jul-cc-pvdz guess=read ub97d
 ----------------------------------------
 ------------------------
 theory_abbreviation b97d
 ------------------------
 Symbolic Z-matrix:
 Charge =  0 Multiplicity = 6

 SCF Done:  E(UB97D) =  -3034.57627404     A.U. after   16 cycles

 ----------------------------------------------------------------
 #t pop=none jul-cc-pvdz guess=read ub97d empiricaldispersion=gd3
 ----------------------------------------------------------------
 -------------------------
 theory_abbreviation b97d3
 -------------------------
 Symbolic Z-matrix:
 Charge =  0 Multiplicity = 6

 SCF Done:  E(UB97D) =  -3034.57665994     A.U. after    1 cycles
 SCF Done:  E(UBHandHLYP) =  -3033.96338917     A.U. after   17 cycles
 SCF Done:  E(UBHandH) =  -3026.31220138     A.U. after   16 cycles
 SCF Done:  E(ULC-wPBE) =  -3033.44995162     A.U. after   18 cycles
 SCF Done:  E(UB-P86) =  -3034.62967727     A.U. after   18 cycles
 SCF Done:  E(UmPW1LYP) =  -3034.04032392     A.U. after   15 cycles
 SCF Done:  E(UmPW1PBE) =  -3033.88483280     A.U. after   15 cycles
 SCF Done:  E(UmPW3PBE) =  -3033.65736603     A.U. after   15 cycles
 SCF Done:  E(UM11) =  -3033.80589498     A.U. after   19 cycles
 SCF Done:  E(UN12SX) =  -3033.25042517     A.U. after   17 cycles
 SCF Done:  E(UMN12SX) =  -3033.64666664     A.U. after   17 cycles
 SCF Done:  E(UB1B95) =  -3034.37792446     A.U. after   16 cycles
 Normal termination of Gaussian 16 at Tue Feb 11 22:54:41 2020.
 SCF Done:  E(UB3PW91) =  -3033.97271923     A.U. after   15 cycles
 Normal termination of Gaussian 16 at Tue Feb 11 23:09:53 2020.
 SCF Done:  E(UM06L) =  -3034.19051781     A.U. after   17 cycles
 Normal termination of Gaussian 16 at Tue Feb 11 23:28:28 2020.
 Gaussian 16:  ES64L-G16RevA.03 25-Dec-2016

                         Standard orientation:
 ---------------------------------------------------------------------
 Center     Atomic      Atomic             Coordinates (Angstroms)
 Number     Number       Type             X           Y           Z
 ---------------------------------------------------------------------
      1          8           0       -0.264799   -0.363918   -0.585875
      2          6           0       -1.294890   -1.150742   -0.253501
      3          6           0       -2.344440   -0.268667    0.834106
      4          6           0       -2.959435    0.693588   -0.017480
      5          6           0       -4.300566    0.460889   -0.608832
      6         26           0        1.483769    0.126694   -0.105214
      7         17           0        2.766528   -0.471833   -1.779579
      8          6           0       -2.199989    1.874945   -0.434569
      9         17           0        2.068556   -0.836388    1.794107
     10         17           0        1.324685    2.327400    0.162905
     11          1           0       -3.055586   -1.031656    1.158634
     12          1           0       -2.728700    2.518498   -1.139024
     13          1           0       -1.816304    2.455204    0.411631
     14          1           0       -1.269051    1.469218   -0.890071
     15          1           0       -4.983243    1.204058   -0.166697
     16          1           0       -4.301937    0.657886   -1.687565
     17          1           0       -4.697345   -0.534572   -0.403675
     18          6           0       -1.496896    0.274045    1.988061
     19          1           0       -2.127092    0.872645    2.654214
     20          1           0       -1.068261   -0.538525    2.574093
     21          1           0       -0.678273    0.900756    1.634941
     22          6           0       -0.903364   -2.382744    0.580817
     23          1           0       -1.782521   -2.958784    0.882896
     24          1           0       -0.279748   -3.010948   -0.064290
     25          1           0       -0.307463   -2.120754    1.453250
     26          6           0       -2.064521   -1.582780   -1.507828
     27          1           0       -1.422481   -2.266240   -2.071422
     28          1           0       -2.995489   -2.105935   -1.266976
     29          1           0       -2.277602   -0.730782   -2.158383
 ---------------------------------------------------------------------

 SCF Done:  E(UB97D3) =  -3034.61052271     A.U. after   16 cycles
 Normal termination of Gaussian 16 at Tue Feb 11 23:41:13 2020.
