 Gaussian 16, Revision A.03,

 --------------------------------
 #t pop=none jul-cc-pvdz upbe1pbe
 --------------------------------
 ------------------------
 theory_abbreviation pbe0
 ------------------------
 Symbolic Z-matrix:
 Charge =  0 Multiplicity = 6

 SCF Done:  E(UPBE1PBE) =  -3033.11723194     A.U. after   21 cycles
 Normal termination of Gaussian 16 at Tue Feb 11 23:38:32 2020.

 ---------------------------------------------------------------------
 #t pop=none jul-cc-pvdz guess=read upbe1pbe empiricaldispersion=gd3bj
 ---------------------------------------------------------------------
 -----------------------------
 theory_abbreviation pbe0_d3bj
 -----------------------------
 Symbolic Z-matrix:
 Charge =  0 Multiplicity = 6

 SCF Done:  E(UPBE1PBE) =  -3033.15418426     A.U. after    1 cycles
 Normal termination of Gaussian 16 at Tue Feb 11 23:39:42 2020.

 -----------------------------------------
 #t pop=none jul-cc-pvdz guess=read ub3lyp
 -----------------------------------------
 -------------------------
 theory_abbreviation b3lyp
 -------------------------
 Symbolic Z-matrix:
 Charge =  0 Multiplicity = 6

 SCF Done:  E(UB3LYP) =  -3034.33232415     A.U. after   14 cycles
 Normal termination of Gaussian 16 at Tue Feb 11 23:53:28 2020.

 -------------------------------------------------------------------
 #t pop=none jul-cc-pvdz guess=read ub3lyp empiricaldispersion=gd3bj
 -------------------------------------------------------------------
 ------------------------------
 theory_abbreviation b3lyp_d3bj
 ------------------------------
 Symbolic Z-matrix:
 Charge =  0 Multiplicity = 6

 SCF Done:  E(UB3LYP) =  -3034.40114315     A.U. after    1 cycles
 Normal termination of Gaussian 16 at Tue Feb 11 23:54:37 2020.

 ----------------------------------------
 #t pop=none jul-cc-pvdz guess=read ub97d
 ----------------------------------------
 ------------------------
 theory_abbreviation b97d
 ------------------------
 Symbolic Z-matrix:
 Charge =  0 Multiplicity = 6

 SCF Done:  E(UB97D) =  -3034.58555225     A.U. after   15 cycles

 ----------------------------------------------------------------
 #t pop=none jul-cc-pvdz guess=read ub97d empiricaldispersion=gd3
 ----------------------------------------------------------------
 -------------------------
 theory_abbreviation b97d3
 -------------------------
 Symbolic Z-matrix:
 Charge =  0 Multiplicity = 6

 SCF Done:  E(UB97D) =  -3034.58664631     A.U. after    1 cycles
 SCF Done:  E(UBHandHLYP) =  -3033.97211794     A.U. after   17 cycles
 SCF Done:  E(UBHandH) =  -3026.31638316     A.U. after   16 cycles
 SCF Done:  E(ULC-wPBE) =  -3033.45560468     A.U. after   19 cycles
 SCF Done:  E(UB-P86) =  -3034.63750201     A.U. after   17 cycles
 SCF Done:  E(UmPW1LYP) =  -3034.05016754     A.U. after   16 cycles
 SCF Done:  E(UmPW1PBE) =  -3033.89172406     A.U. after   16 cycles
 SCF Done:  E(UmPW3PBE) =  -3033.66463614     A.U. after   13 cycles
 SCF Done:  E(UM11) =  -3033.81377262     A.U. after   19 cycles
 SCF Done:  E(UN12SX) =  -3033.25653152     A.U. after   17 cycles
 SCF Done:  E(UMN12SX) =  -3033.65438540     A.U. after   17 cycles
 SCF Done:  E(UB1B95) =  -3034.38558579     A.U. after   16 cycles
 Normal termination of Gaussian 16 at Wed Feb 12 08:17:56 2020.
 SCF Done:  E(UB3PW91) =  -3033.98028488     A.U. after   15 cycles
 Normal termination of Gaussian 16 at Wed Feb 12 08:33:04 2020.
 SCF Done:  E(UM06L) =  -3034.19838262     A.U. after   18 cycles
 Normal termination of Gaussian 16 at Wed Feb 12 08:52:55 2020.
 Gaussian 16:  ES64L-G16RevA.03 25-Dec-2016

                         Standard orientation:
 ---------------------------------------------------------------------
 Center     Atomic      Atomic             Coordinates (Angstroms)
 Number     Number       Type             X           Y           Z
 ---------------------------------------------------------------------
      1          8           0       -0.296044   -0.217422   -0.669727
      2          6           0       -1.170265   -1.151933   -0.506752
      3          6           0       -2.731391   -0.346919    0.644266
      4          6           0       -2.756358    0.841980   -0.047598
      5          6           0       -3.591357    1.024724   -1.275236
      6         26           0        1.470487    0.160854   -0.045897
      7         17           0        1.921473    2.094082   -0.972562
      8          6           0       -1.889386    1.990707    0.320828
      9         17           0        2.661446   -1.544869   -0.739661
     10         17           0        1.380439    0.290278    2.155768
     11          1           0       -3.471671   -1.087112    0.343197
     12          1           0       -2.355372    2.946126    0.061239
     13          1           0       -1.586681    1.997062    1.368332
     14          1           0       -0.970793    1.910183   -0.283983
     15          1           0       -4.321838    1.822746   -1.085471
     16          1           0       -2.978390    1.365557   -2.119928
     17          1           0       -4.138212    0.123687   -1.558948
     18          6           0       -2.296429   -0.419098    2.095301
     19          1           0       -2.973582    0.187087    2.709063
     20          1           0       -2.349643   -1.442916    2.469926
     21          1           0       -1.280888   -0.051941    2.256260
     22          6           0       -0.808271   -2.289651    0.428035
     23          1           0       -1.656827   -2.941679    0.645254
     24          1           0       -0.047780   -2.872923   -0.108405
     25          1           0       -0.353350   -1.935351    1.352324
     26          6           0       -1.875706   -1.584270   -1.778029
     27          1           0       -1.167445   -2.232514   -2.309550
     28          1           0       -2.784339   -2.159458   -1.586624
     29          1           0       -2.089635   -0.735983   -2.426712
 ---------------------------------------------------------------------

 SCF Done:  E(UB97D3) =  -3034.62167145     A.U. after   15 cycles
 Normal termination of Gaussian 16 at Wed Feb 12 09:04:54 2020.
