 Gaussian 16, Revision A.03,

 --------------------------------
 #t pop=none jul-cc-pvdz upbe1pbe
 --------------------------------
 ------------------------
 theory_abbreviation pbe0
 ------------------------
 Symbolic Z-matrix:
 Charge =  0 Multiplicity = 6

 SCF Done:  E(UPBE1PBE) =  -3033.11205250     A.U. after   21 cycles
 Normal termination of Gaussian 16 at Tue Feb 11 14:45:35 2020.

 ---------------------------------------------------------------------
 #t pop=none jul-cc-pvdz guess=read upbe1pbe empiricaldispersion=gd3bj
 ---------------------------------------------------------------------
 -----------------------------
 theory_abbreviation pbe0_d3bj
 -----------------------------
 Symbolic Z-matrix:
 Charge =  0 Multiplicity = 6

 SCF Done:  E(UPBE1PBE) =  -3033.14803265     A.U. after    1 cycles
 Normal termination of Gaussian 16 at Tue Feb 11 14:46:44 2020.

 -----------------------------------------
 #t pop=none jul-cc-pvdz guess=read ub3lyp
 -----------------------------------------
 -------------------------
 theory_abbreviation b3lyp
 -------------------------
 Symbolic Z-matrix:
 Charge =  0 Multiplicity = 6

 SCF Done:  E(UB3LYP) =  -3034.32455859     A.U. after   15 cycles
 Normal termination of Gaussian 16 at Tue Feb 11 15:02:00 2020.

 -------------------------------------------------------------------
 #t pop=none jul-cc-pvdz guess=read ub3lyp empiricaldispersion=gd3bj
 -------------------------------------------------------------------
 ------------------------------
 theory_abbreviation b3lyp_d3bj
 ------------------------------
 Symbolic Z-matrix:
 Charge =  0 Multiplicity = 6

 SCF Done:  E(UB3LYP) =  -3034.39170667     A.U. after    1 cycles
 Normal termination of Gaussian 16 at Tue Feb 11 15:03:08 2020.

 ----------------------------------------
 #t pop=none jul-cc-pvdz guess=read ub97d
 ----------------------------------------
 ------------------------
 theory_abbreviation b97d
 ------------------------
 Symbolic Z-matrix:
 Charge =  0 Multiplicity = 6

 SCF Done:  E(UB97D) =  -3034.57679725     A.U. after   16 cycles

 ----------------------------------------------------------------
 #t pop=none jul-cc-pvdz guess=read ub97d empiricaldispersion=gd3
 ----------------------------------------------------------------
 -------------------------
 theory_abbreviation b97d3
 -------------------------
 Symbolic Z-matrix:
 Charge =  0 Multiplicity = 6

 SCF Done:  E(UB97D) =  -3034.57693294     A.U. after    1 cycles
 SCF Done:  E(UBHandHLYP) =  -3033.96529144     A.U. after   17 cycles
 SCF Done:  E(UBHandH) =  -3026.31341584     A.U. after   16 cycles
 SCF Done:  E(ULC-wPBE) =  -3033.45108684     A.U. after   18 cycles
 SCF Done:  E(UB-P86) =  -3034.63047840     A.U. after   17 cycles
 SCF Done:  E(UmPW1LYP) =  -3034.04221539     A.U. after   15 cycles
 SCF Done:  E(UmPW1PBE) =  -3033.88655117     A.U. after   15 cycles
 SCF Done:  E(UmPW3PBE) =  -3033.65910008     A.U. after   15 cycles
 SCF Done:  E(UM11) =  -3033.80597093     A.U. after   18 cycles
 SCF Done:  E(UN12SX) =  -3033.25166429     A.U. after   17 cycles
 SCF Done:  E(UMN12SX) =  -3033.64665269     A.U. after   16 cycles
 SCF Done:  E(UB1B95) =  -3034.37836139     A.U. after   16 cycles
 Normal termination of Gaussian 16 at Tue Feb 11 23:22:06 2020.
 SCF Done:  E(UB3PW91) =  -3033.97452806     A.U. after   15 cycles
 Normal termination of Gaussian 16 at Tue Feb 11 23:36:48 2020.
 SCF Done:  E(UM06L) =  -3034.19057530     A.U. after   17 cycles
 Normal termination of Gaussian 16 at Tue Feb 11 23:54:51 2020.
 Gaussian 16:  ES64L-G16RevA.03 25-Dec-2016

                         Standard orientation:
 ---------------------------------------------------------------------
 Center     Atomic      Atomic             Coordinates (Angstroms)
 Number     Number       Type             X           Y           Z
 ---------------------------------------------------------------------
      1          8           0       -0.313588   -0.100228   -0.411075
      2          6           0       -1.238999   -1.051580   -0.217253
      3          6           0       -2.524974   -0.373731    0.757064
      4          6           0       -3.028504    0.687645   -0.049102
      5          6           0       -4.186001    0.492938   -0.957662
      6         26           0        1.512865    0.172194   -0.092061
      7         17           0        1.822420    2.201897   -0.890105
      8          6           0       -2.286529    1.944675   -0.111447
      9         17           0        2.537069   -1.460614   -1.155916
     10         17           0        1.837489    0.083831    2.096738
     11          1           0       -3.230937   -1.204867    0.820732
     12          1           0       -2.730384    2.701164   -0.759660
     13          1           0       -2.048245    2.355773    0.874381
     14          1           0       -1.288791    1.623442   -0.508847
     15          1           0       -5.013486    1.109266   -0.572133
     16          1           0       -3.970982    0.875180   -1.962995
     17          1           0       -4.524021   -0.542936   -1.010129
     18          6           0       -1.932742    0.016545    2.116305
     19          1           0       -2.605111    0.701538    2.642851
     20          1           0       -1.808354   -0.869163    2.740634
     21          1           0       -0.955375    0.490949    2.011717
     22          6           0       -0.737811   -2.226944    0.637128
     23          1           0       -1.543391   -2.922754    0.889081
     24          1           0        0.008345   -2.754563    0.033156
     25          1           0       -0.242822   -1.884334    1.545787
     26          6           0       -1.807237   -1.547555   -1.550118
     27          1           0       -1.012777   -2.102924   -2.057908
     28          1           0       -2.664827   -2.215088   -1.416327
     29          1           0       -2.086479   -0.714801   -2.199849
 ---------------------------------------------------------------------

 SCF Done:  E(UB97D3) =  -3034.61144925     A.U. after   16 cycles
 Normal termination of Gaussian 16 at Wed Feb 12 00:07:59 2020.
