 Gaussian 16, Revision A.03,

 --------------------------------
 #t pop=none jul-cc-pvdz upbe1pbe
 --------------------------------
 ------------------------
 theory_abbreviation pbe0
 ------------------------
 Symbolic Z-matrix:
 Charge =  0 Multiplicity = 6

 SCF Done:  E(UPBE1PBE) =  -3033.10560287     A.U. after   21 cycles
 Normal termination of Gaussian 16 at Tue Feb 11 14:45:26 2020.

 ---------------------------------------------------------------------
 #t pop=none jul-cc-pvdz guess=read upbe1pbe empiricaldispersion=gd3bj
 ---------------------------------------------------------------------
 -----------------------------
 theory_abbreviation pbe0_d3bj
 -----------------------------
 Symbolic Z-matrix:
 Charge =  0 Multiplicity = 6

 SCF Done:  E(UPBE1PBE) =  -3033.14240690     A.U. after    1 cycles
 Normal termination of Gaussian 16 at Tue Feb 11 14:46:37 2020.

 -----------------------------------------
 #t pop=none jul-cc-pvdz guess=read ub3lyp
 -----------------------------------------
 -------------------------
 theory_abbreviation b3lyp
 -------------------------
 Symbolic Z-matrix:
 Charge =  0 Multiplicity = 6

 SCF Done:  E(UB3LYP) =  -3034.31671342     A.U. after   13 cycles
 Normal termination of Gaussian 16 at Tue Feb 11 15:00:20 2020.

 -------------------------------------------------------------------
 #t pop=none jul-cc-pvdz guess=read ub3lyp empiricaldispersion=gd3bj
 -------------------------------------------------------------------
 ------------------------------
 theory_abbreviation b3lyp_d3bj
 ------------------------------
 Symbolic Z-matrix:
 Charge =  0 Multiplicity = 6

 SCF Done:  E(UB3LYP) =  -3034.38534607     A.U. after    1 cycles
 Normal termination of Gaussian 16 at Tue Feb 11 15:01:30 2020.

 ----------------------------------------
 #t pop=none jul-cc-pvdz guess=read ub97d
 ----------------------------------------
 ------------------------
 theory_abbreviation b97d
 ------------------------
 Symbolic Z-matrix:
 Charge =  0 Multiplicity = 6

 SCF Done:  E(UB97D) =  -3034.56713098     A.U. after   17 cycles

 ----------------------------------------------------------------
 #t pop=none jul-cc-pvdz guess=read ub97d empiricaldispersion=gd3
 ----------------------------------------------------------------
 -------------------------
 theory_abbreviation b97d3
 -------------------------
 Symbolic Z-matrix:
 Charge =  0 Multiplicity = 6

 SCF Done:  E(UB97D) =  -3034.56795039     A.U. after    1 cycles
 SCF Done:  E(UBHandHLYP) =  -3033.96153055     A.U. after   17 cycles
 SCF Done:  E(UBHandH) =  -3026.31175930     A.U. after   13 cycles
 SCF Done:  E(ULC-wPBE) =  -3033.44896749     A.U. after   17 cycles
 SCF Done:  E(UB-P86) =  -3034.62234642     A.U. after   18 cycles
 SCF Done:  E(UmPW1LYP) =  -3034.03511895     A.U. after   14 cycles
 SCF Done:  E(UmPW1PBE) =  -3033.87993715     A.U. after   15 cycles
 SCF Done:  E(UmPW3PBE) =  -3033.65184357     A.U. after   14 cycles
 SCF Done:  E(UM11) =  -3033.80143090     A.U. after   17 cycles
 SCF Done:  E(UN12SX) =  -3033.24551920     A.U. after   16 cycles
 SCF Done:  E(UMN12SX) =  -3033.64209819     A.U. after   16 cycles
 SCF Done:  E(UB1B95) =  -3034.37195488     A.U. after   15 cycles
 Normal termination of Gaussian 16 at Tue Feb 11 23:34:28 2020.
 SCF Done:  E(UB3PW91) =  -3033.96705216     A.U. after   15 cycles
 Normal termination of Gaussian 16 at Tue Feb 11 23:49:29 2020.
 SCF Done:  E(UM06L) =  -3034.18365853     A.U. after   18 cycles
 Normal termination of Gaussian 16 at Wed Feb 12 00:09:34 2020.
 Gaussian 16:  ES64L-G16RevA.03 25-Dec-2016

                         Standard orientation:
 ---------------------------------------------------------------------
 Center     Atomic      Atomic             Coordinates (Angstroms)
 Number     Number       Type             X           Y           Z
 ---------------------------------------------------------------------
      1          8           0       -0.331619   -0.218735   -0.567734
      2          6           0       -1.283438   -1.184261   -0.381296
      3          6           0       -2.500084   -0.490475    0.491021
      4          6           0       -2.593289    0.845444   -0.062845
      5          6           0       -3.437741    1.114362   -1.250616
      6         26           0        1.403404    0.146656   -0.065301
      7         17           0        1.545539    2.272641   -0.738209
      8          6           0       -1.822825    1.961642    0.464317
      9         17           0        2.769023   -1.288001   -1.014806
     10         17           0        1.455296    0.059529    2.159904
     11          1           0       -3.391623   -1.064628    0.218494
     12          1           0       -2.225986    2.938504    0.188180
     13          1           0       -1.593078    1.893575    1.527779
     14          1           0       -0.836928    1.866868   -0.052881
     15          1           0       -4.202343    1.849886   -0.959631
     16          1           0       -2.836346    1.603480   -2.029221
     17          1           0       -3.929924    0.229109   -1.650664
     18          6           0       -2.246036   -0.543256    2.003979
     19          1           0       -2.973177    0.079480    2.535605
     20          1           0       -2.365248   -1.567504    2.361645
     21          1           0       -1.238740   -0.209384    2.261920
     22          6           0       -0.758717   -2.396693    0.399370
     23          1           0       -1.544728   -3.136025    0.584729
     24          1           0        0.018163   -2.860714   -0.217357
     25          1           0       -0.300232   -2.104230    1.344411
     26          6           0       -1.815047   -1.645292   -1.747529
     27          1           0       -1.004383   -2.177945   -2.252717
     28          1           0       -2.670520   -2.322971   -1.652504
     29          1           0       -2.084966   -0.800397   -2.383598
 ---------------------------------------------------------------------

 SCF Done:  E(UB97D3) =  -3034.60263688     A.U. after   17 cycles
 Normal termination of Gaussian 16 at Wed Feb 12 00:22:56 2020.
