 Gaussian 16, Revision A.03,

 --------------------------------
 #t pop=none jul-cc-pvdz upbe1pbe
 --------------------------------
 ------------------------
 theory_abbreviation pbe0
 ------------------------
 Symbolic Z-matrix:
 Charge =  0 Multiplicity = 6

 SCF Done:  E(UPBE1PBE) =  -3033.10806476     A.U. after   20 cycles
 Normal termination of Gaussian 16 at Tue Feb 11 13:57:51 2020.

 ---------------------------------------------------------------------
 #t pop=none jul-cc-pvdz guess=read upbe1pbe empiricaldispersion=gd3bj
 ---------------------------------------------------------------------
 -----------------------------
 theory_abbreviation pbe0_d3bj
 -----------------------------
 Symbolic Z-matrix:
 Charge =  0 Multiplicity = 6

 SCF Done:  E(UPBE1PBE) =  -3033.14589834     A.U. after    1 cycles
 Normal termination of Gaussian 16 at Tue Feb 11 13:59:02 2020.

 -----------------------------------------
 #t pop=none jul-cc-pvdz guess=read ub3lyp
 -----------------------------------------
 -------------------------
 theory_abbreviation b3lyp
 -------------------------
 Symbolic Z-matrix:
 Charge =  0 Multiplicity = 6

 SCF Done:  E(UB3LYP) =  -3034.32200582     A.U. after   13 cycles
 Normal termination of Gaussian 16 at Tue Feb 11 14:12:43 2020.

 -------------------------------------------------------------------
 #t pop=none jul-cc-pvdz guess=read ub3lyp empiricaldispersion=gd3bj
 -------------------------------------------------------------------
 ------------------------------
 theory_abbreviation b3lyp_d3bj
 ------------------------------
 Symbolic Z-matrix:
 Charge =  0 Multiplicity = 6

 SCF Done:  E(UB3LYP) =  -3034.39251951     A.U. after    1 cycles
 Normal termination of Gaussian 16 at Tue Feb 11 14:13:56 2020.

 ----------------------------------------
 #t pop=none jul-cc-pvdz guess=read ub97d
 ----------------------------------------
 ------------------------
 theory_abbreviation b97d
 ------------------------
 Symbolic Z-matrix:
 Charge =  0 Multiplicity = 6

 SCF Done:  E(UB97D) =  -3034.57514505     A.U. after   15 cycles

 ----------------------------------------------------------------
 #t pop=none jul-cc-pvdz guess=read ub97d empiricaldispersion=gd3
 ----------------------------------------------------------------
 -------------------------
 theory_abbreviation b97d3
 -------------------------
 Symbolic Z-matrix:
 Charge =  0 Multiplicity = 6

 SCF Done:  E(UB97D) =  -3034.57650427     A.U. after    1 cycles
 SCF Done:  E(UBHandHLYP) =  -3033.96402176     A.U. after   17 cycles
 SCF Done:  E(UBHandH) =  -3026.31010404     A.U. after   14 cycles
 SCF Done:  E(ULC-wPBE) =  -3033.44849655     A.U. after   19 cycles
 SCF Done:  E(UB-P86) =  -3034.62830929     A.U. after   17 cycles
 SCF Done:  E(UmPW1LYP) =  -3034.04018763     A.U. after   13 cycles
 SCF Done:  E(UmPW1PBE) =  -3033.88252322     A.U. after   13 cycles
 SCF Done:  E(UmPW3PBE) =  -3033.65504017     A.U. after   13 cycles
 SCF Done:  E(UM11) =  -3033.80588889     A.U. after   19 cycles
 SCF Done:  E(UN12SX) =  -3033.24756157     A.U. after   17 cycles
 SCF Done:  E(UMN12SX) =  -3033.64700647     A.U. after   16 cycles
 SCF Done:  E(UB1B95) =  -3034.37741984     A.U. after   16 cycles
 Normal termination of Gaussian 16 at Tue Feb 11 22:44:17 2020.
 SCF Done:  E(UB3PW91) =  -3033.97052316     A.U. after   13 cycles
 Normal termination of Gaussian 16 at Tue Feb 11 22:59:28 2020.
 SCF Done:  E(UM06L) =  -3034.18972729     A.U. after   17 cycles
 Normal termination of Gaussian 16 at Tue Feb 11 23:18:22 2020.
 Gaussian 16:  ES64L-G16RevA.03 25-Dec-2016

                         Standard orientation:
 ---------------------------------------------------------------------
 Center     Atomic      Atomic             Coordinates (Angstroms)
 Number     Number       Type             X           Y           Z
 ---------------------------------------------------------------------
      1          8           0       -0.325312   -0.119771   -0.620997
      2          6           0       -1.239325   -1.037155   -0.548106
      3          6           0       -3.056444   -0.064921    0.064542
      4          6           0       -2.311887    1.058446   -0.187580
      5          6           0       -2.274043    1.693817   -1.538541
      6         26           0        1.442825    0.067512    0.045236
      7         17           0        2.042581    2.024011   -0.747960
      8          6           0       -1.567856    1.790076    0.881454
      9         17           0        2.483690   -1.694302   -0.758402
     10         17           0        1.338384    0.024896    2.252472
     11          1           0       -3.686196   -0.420679   -0.747646
     12          1           0       -2.252915    2.536039    1.311389
     13          1           0       -1.227554    1.147934    1.694202
     14          1           0       -0.708401    2.326655    0.472348
     15          1           0       -2.624458    2.729865   -1.439554
     16          1           0       -1.241326    1.742014   -1.900503
     17          1           0       -2.907908    1.187745   -2.269612
     18          6           0       -3.489105   -0.506739    1.440904
     19          1           0       -4.394359    0.043885    1.728436
     20          1           0       -3.742147   -1.570045    1.461624
     21          1           0       -2.735890   -0.319937    2.209105
     22          6           0       -1.115493   -2.047510    0.563068
     23          1           0       -1.978228   -2.710754    0.632170
     24          1           0       -0.234997   -2.652683    0.301893
     25          1           0       -0.906999   -1.577733    1.524462
     26          6           0       -1.713079   -1.573531   -1.879288
     27          1           0       -0.876384   -2.170824   -2.267037
     28          1           0       -2.589246   -2.218466   -1.786224
     29          1           0       -1.899696   -0.773334   -2.595799
 ---------------------------------------------------------------------

 SCF Done:  E(UB97D3) =  -3034.61224481     A.U. after   15 cycles
 Normal termination of Gaussian 16 at Tue Feb 11 23:30:30 2020.
