 Gaussian 16, Revision A.03,

 --------------------------------
 #t pop=none jul-cc-pvdz upbe1pbe
 --------------------------------
 ------------------------
 theory_abbreviation pbe0
 ------------------------
 Symbolic Z-matrix:
 Charge =  0 Multiplicity = 6

 SCF Done:  E(UPBE1PBE) =  -3033.11523589     A.U. after   21 cycles
 Normal termination of Gaussian 16 at Tue Feb 11 13:59:06 2020.

 ---------------------------------------------------------------------
 #t pop=none jul-cc-pvdz guess=read upbe1pbe empiricaldispersion=gd3bj
 ---------------------------------------------------------------------
 -----------------------------
 theory_abbreviation pbe0_d3bj
 -----------------------------
 Symbolic Z-matrix:
 Charge =  0 Multiplicity = 6

 SCF Done:  E(UPBE1PBE) =  -3033.15104755     A.U. after    1 cycles
 Normal termination of Gaussian 16 at Tue Feb 11 14:00:17 2020.

 -----------------------------------------
 #t pop=none jul-cc-pvdz guess=read ub3lyp
 -----------------------------------------
 -------------------------
 theory_abbreviation b3lyp
 -------------------------
 Symbolic Z-matrix:
 Charge =  0 Multiplicity = 6

 SCF Done:  E(UB3LYP) =  -3034.32964082     A.U. after   15 cycles
 Normal termination of Gaussian 16 at Tue Feb 11 14:15:59 2020.

 -------------------------------------------------------------------
 #t pop=none jul-cc-pvdz guess=read ub3lyp empiricaldispersion=gd3bj
 -------------------------------------------------------------------
 ------------------------------
 theory_abbreviation b3lyp_d3bj
 ------------------------------
 Symbolic Z-matrix:
 Charge =  0 Multiplicity = 6

 SCF Done:  E(UB3LYP) =  -3034.39642525     A.U. after    1 cycles
 Normal termination of Gaussian 16 at Tue Feb 11 14:17:10 2020.

 ----------------------------------------
 #t pop=none jul-cc-pvdz guess=read ub97d
 ----------------------------------------
 ------------------------
 theory_abbreviation b97d
 ------------------------
 Symbolic Z-matrix:
 Charge =  0 Multiplicity = 6

 SCF Done:  E(UB97D) =  -3034.58231923     A.U. after   17 cycles

 ----------------------------------------------------------------
 #t pop=none jul-cc-pvdz guess=read ub97d empiricaldispersion=gd3
 ----------------------------------------------------------------
 -------------------------
 theory_abbreviation b97d3
 -------------------------
 Symbolic Z-matrix:
 Charge =  0 Multiplicity = 6

 SCF Done:  E(UB97D) =  -3034.58249034     A.U. after    1 cycles
 SCF Done:  E(UBHandHLYP) =  -3033.96880056     A.U. after   17 cycles
 SCF Done:  E(UBHandH) =  -3026.31392045     A.U. after   16 cycles
 SCF Done:  E(ULC-wPBE) =  -3033.45215789     A.U. after   18 cycles
 SCF Done:  E(UB-P86) =  -3034.63412356     A.U. after   16 cycles
 SCF Done:  E(UmPW1LYP) =  -3034.04721263     A.U. after   15 cycles
 SCF Done:  E(UmPW1PBE) =  -3033.88983530     A.U. after   16 cycles
 SCF Done:  E(UmPW3PBE) =  -3033.66272404     A.U. after   15 cycles
 SCF Done:  E(UM11) =  -3033.81032023     A.U. after   19 cycles
 SCF Done:  E(UN12SX) =  -3033.25474055     A.U. after   17 cycles
 SCF Done:  E(UMN12SX) =  -3033.65060298     A.U. after   17 cycles
 SCF Done:  E(UB1B95) =  -3034.38269228     A.U. after   16 cycles
 Normal termination of Gaussian 16 at Tue Feb 11 23:06:05 2020.
 SCF Done:  E(UB3PW91) =  -3033.97836279     A.U. after   15 cycles
 Normal termination of Gaussian 16 at Tue Feb 11 23:21:13 2020.
 SCF Done:  E(UM06L) =  -3034.19472923     A.U. after   16 cycles
 Normal termination of Gaussian 16 at Tue Feb 11 23:38:38 2020.
 Gaussian 16:  ES64L-G16RevA.03 25-Dec-2016

                         Standard orientation:
 ---------------------------------------------------------------------
 Center     Atomic      Atomic             Coordinates (Angstroms)
 Number     Number       Type             X           Y           Z
 ---------------------------------------------------------------------
      1          8           0       -0.307119   -0.143892   -0.439868
      2          6           0       -1.182836   -1.088025   -0.211184
      3          6           0       -2.605671   -0.274002    0.844945
      4          6           0       -3.065330    0.671693   -0.069683
      5          6           0       -4.184911    0.381943   -1.009723
      6         26           0        1.531703    0.172826   -0.099540
      7         17           0        1.865306    2.135481   -1.021016
      8          6           0       -2.360048    1.963898   -0.212280
      9         17           0        2.530249   -1.538538   -1.053203
     10         17           0        1.838931    0.204196    2.085943
     11          1           0       -3.249867   -1.146766    0.953072
     12          1           0       -2.837116    2.639062   -0.925177
     13          1           0       -2.216190    2.470045    0.747807
     14          1           0       -1.339825    1.716619   -0.569054
     15          1           0       -5.017077    1.058056   -0.764275
     16          1           0       -3.905132    0.611471   -2.045458
     17          1           0       -4.546634   -0.645730   -0.943279
     18          6           0       -1.919350    0.189866    2.121552
     19          1           0       -2.539883    0.934940    2.631826
     20          1           0       -1.774645   -0.643913    2.809807
     21          1           0       -0.941900    0.635856    1.926649
     22          6           0       -0.746801   -2.174715    0.768094
     23          1           0       -1.570143   -2.832472    1.056912
     24          1           0        0.005251   -2.769609    0.234401
     25          1           0       -0.264787   -1.758530    1.652048
     26          6           0       -1.820963   -1.644731   -1.474879
     27          1           0       -1.064704   -2.276603   -1.954950
     28          1           0       -2.700381   -2.260189   -1.266664
     29          1           0       -2.075090   -0.849502   -2.177065
 ---------------------------------------------------------------------

 SCF Done:  E(UB97D3) =  -3034.61675037     A.U. after   16 cycles
 Normal termination of Gaussian 16 at Tue Feb 11 23:51:08 2020.
