 Gaussian 16, Revision A.03,

 --------------------------------
 #t pop=none jul-cc-pvdz upbe1pbe
 --------------------------------
 ------------------------
 theory_abbreviation pbe0
 ------------------------
 Symbolic Z-matrix:
 Charge =  0 Multiplicity = 6

 SCF Done:  E(UPBE1PBE) =  -3033.11204644     A.U. after   21 cycles
 Normal termination of Gaussian 16 at Tue Feb 11 14:46:33 2020.

 ---------------------------------------------------------------------
 #t pop=none jul-cc-pvdz guess=read upbe1pbe empiricaldispersion=gd3bj
 ---------------------------------------------------------------------
 -----------------------------
 theory_abbreviation pbe0_d3bj
 -----------------------------
 Symbolic Z-matrix:
 Charge =  0 Multiplicity = 6

 SCF Done:  E(UPBE1PBE) =  -3033.14854035     A.U. after    1 cycles
 Normal termination of Gaussian 16 at Tue Feb 11 14:47:44 2020.

 -----------------------------------------
 #t pop=none jul-cc-pvdz guess=read ub3lyp
 -----------------------------------------
 -------------------------
 theory_abbreviation b3lyp
 -------------------------
 Symbolic Z-matrix:
 Charge =  0 Multiplicity = 6

 SCF Done:  E(UB3LYP) =  -3034.32555953     A.U. after   13 cycles
 Normal termination of Gaussian 16 at Tue Feb 11 15:01:35 2020.

 -------------------------------------------------------------------
 #t pop=none jul-cc-pvdz guess=read ub3lyp empiricaldispersion=gd3bj
 -------------------------------------------------------------------
 ------------------------------
 theory_abbreviation b3lyp_d3bj
 ------------------------------
 Symbolic Z-matrix:
 Charge =  0 Multiplicity = 6

 SCF Done:  E(UB3LYP) =  -3034.39356609     A.U. after    1 cycles
 Normal termination of Gaussian 16 at Tue Feb 11 15:02:47 2020.

 ----------------------------------------
 #t pop=none jul-cc-pvdz guess=read ub97d
 ----------------------------------------
 ------------------------
 theory_abbreviation b97d
 ------------------------
 Symbolic Z-matrix:
 Charge =  0 Multiplicity = 6

 SCF Done:  E(UB97D) =  -3034.57825596     A.U. after   17 cycles

 ----------------------------------------------------------------
 #t pop=none jul-cc-pvdz guess=read ub97d empiricaldispersion=gd3
 ----------------------------------------------------------------
 -------------------------
 theory_abbreviation b97d3
 -------------------------
 Symbolic Z-matrix:
 Charge =  0 Multiplicity = 6

 SCF Done:  E(UB97D) =  -3034.57874035     A.U. after    1 cycles
 SCF Done:  E(UBHandHLYP) =  -3033.96604862     A.U. after   17 cycles
 SCF Done:  E(UBHandH) =  -3026.31308439     A.U. after   16 cycles
 SCF Done:  E(ULC-wPBE) =  -3033.45056218     A.U. after   18 cycles
 SCF Done:  E(UB-P86) =  -3034.63081504     A.U. after   17 cycles
 SCF Done:  E(UmPW1LYP) =  -3034.04340917     A.U. after   15 cycles
 SCF Done:  E(UmPW1PBE) =  -3033.88649609     A.U. after   16 cycles
 SCF Done:  E(UmPW3PBE) =  -3033.65916025     A.U. after   15 cycles
 SCF Done:  E(UM11) =  -3033.80837953     A.U. after   19 cycles
 SCF Done:  E(UN12SX) =  -3033.25168348     A.U. after   17 cycles
 SCF Done:  E(UMN12SX) =  -3033.64824166     A.U. after   17 cycles
 SCF Done:  E(UB1B95) =  -3034.37966621     A.U. after   16 cycles
 Normal termination of Gaussian 16 at Tue Feb 11 23:55:56 2020.
 SCF Done:  E(UB3PW91) =  -3033.97461588     A.U. after   15 cycles
 Normal termination of Gaussian 16 at Wed Feb 12 00:12:38 2020.
 SCF Done:  E(UM06L) =  -3034.19201581     A.U. after   17 cycles
 Normal termination of Gaussian 16 at Wed Feb 12 00:31:39 2020.
 Gaussian 16:  ES64L-G16RevA.03 25-Dec-2016

                         Standard orientation:
 ---------------------------------------------------------------------
 Center     Atomic      Atomic             Coordinates (Angstroms)
 Number     Number       Type             X           Y           Z
 ---------------------------------------------------------------------
      1          8           0       -0.336133   -0.158009   -0.577556
      2          6           0       -1.207008   -1.123056   -0.427045
      3          6           0       -2.665717   -0.384765    0.635780
      4          6           0       -2.745042    0.816699   -0.058318
      5          6           0       -3.603662    0.966434   -1.269298
      6         26           0        1.454364    0.161280   -0.055474
      7         17           0        1.837655    2.157944   -0.891753
      8          6           0       -1.928642    1.989988    0.311314
      9         17           0        2.620183   -1.492028   -0.909726
     10         17           0        1.489626    0.175682    2.157289
     11          1           0       -3.427637   -1.117717    0.371503
     12          1           0       -2.351390    2.924043   -0.067205
     13          1           0       -1.725124    2.065383    1.380577
     14          1           0       -0.952784    1.846914   -0.187212
     15          1           0       -4.365064    1.729148   -1.054135
     16          1           0       -3.019616    1.350370   -2.115865
     17          1           0       -4.112187    0.045089   -1.556060
     18          6           0       -2.242811   -0.394762    2.095794
     19          1           0       -2.927650    0.229581    2.681242
     20          1           0       -2.289567   -1.404741    2.506290
     21          1           0       -1.228727   -0.016285    2.242036
     22          6           0       -0.781837   -2.285476    0.461831
     23          1           0       -1.604936   -2.974060    0.668396
     24          1           0       -0.010220   -2.822576   -0.103988
     25          1           0       -0.328506   -1.948117    1.393082
     26          6           0       -1.831469   -1.585028   -1.737008
     27          1           0       -1.070790   -2.193131   -2.240325
     28          1           0       -2.720372   -2.204093   -1.588689
     29          1           0       -2.059574   -0.746402   -2.393955
 ---------------------------------------------------------------------

 SCF Done:  E(UB97D3) =  -3034.61297950     A.U. after   16 cycles
 Normal termination of Gaussian 16 at Wed Feb 12 00:44:33 2020.
