 Gaussian 16, Revision A.03,

 --------------------------------
 #t pop=none jul-cc-pvdz upbe1pbe
 --------------------------------
 ------------------------
 theory_abbreviation pbe0
 ------------------------
 Symbolic Z-matrix:
 Charge =  0 Multiplicity = 6

 SCF Done:  E(UPBE1PBE) =  -3033.09847341     A.U. after   20 cycles
 Normal termination of Gaussian 16 at Tue Feb 11 13:58:29 2020.

 ---------------------------------------------------------------------
 #t pop=none jul-cc-pvdz guess=read upbe1pbe empiricaldispersion=gd3bj
 ---------------------------------------------------------------------
 -----------------------------
 theory_abbreviation pbe0_d3bj
 -----------------------------
 Symbolic Z-matrix:
 Charge =  0 Multiplicity = 6

 SCF Done:  E(UPBE1PBE) =  -3033.13536620     A.U. after    1 cycles
 Normal termination of Gaussian 16 at Tue Feb 11 13:59:42 2020.

 -----------------------------------------
 #t pop=none jul-cc-pvdz guess=read ub3lyp
 -----------------------------------------
 -------------------------
 theory_abbreviation b3lyp
 -------------------------
 Symbolic Z-matrix:
 Charge =  0 Multiplicity = 6

 SCF Done:  E(UB3LYP) =  -3034.31266341     A.U. after   13 cycles
 Normal termination of Gaussian 16 at Tue Feb 11 14:14:01 2020.

 -------------------------------------------------------------------
 #t pop=none jul-cc-pvdz guess=read ub3lyp empiricaldispersion=gd3bj
 -------------------------------------------------------------------
 ------------------------------
 theory_abbreviation b3lyp_d3bj
 ------------------------------
 Symbolic Z-matrix:
 Charge =  0 Multiplicity = 6

 SCF Done:  E(UB3LYP) =  -3034.38124938     A.U. after    1 cycles
 Normal termination of Gaussian 16 at Tue Feb 11 14:15:14 2020.

 ----------------------------------------
 #t pop=none jul-cc-pvdz guess=read ub97d
 ----------------------------------------
 ------------------------
 theory_abbreviation b97d
 ------------------------
 Symbolic Z-matrix:
 Charge =  0 Multiplicity = 6

 SCF Done:  E(UB97D) =  -3034.56473529     A.U. after   16 cycles

 ----------------------------------------------------------------
 #t pop=none jul-cc-pvdz guess=read ub97d empiricaldispersion=gd3
 ----------------------------------------------------------------
 -------------------------
 theory_abbreviation b97d3
 -------------------------
 Symbolic Z-matrix:
 Charge =  0 Multiplicity = 6

 SCF Done:  E(UB97D) =  -3034.56577126     A.U. after    1 cycles
 SCF Done:  E(UBHandHLYP) =  -3033.95186782     A.U. after   17 cycles
 SCF Done:  E(UBHandH) =  -3026.29652292     A.U. after   15 cycles
 SCF Done:  E(ULC-wPBE) =  -3033.44058371     A.U. after   18 cycles
 SCF Done:  E(UB-P86) =  -3034.62074638     A.U. after   16 cycles
 SCF Done:  E(UmPW1LYP) =  -3034.03044640     A.U. after   15 cycles
 SCF Done:  E(UmPW1PBE) =  -3033.87304207     A.U. after   15 cycles
 SCF Done:  E(UmPW3PBE) =  -3033.64585194     A.U. after   14 cycles
 SCF Done:  E(UM11) =  -3033.79254771     A.U. after   16 cycles
 SCF Done:  E(UN12SX) =  -3033.23888809     A.U. after   17 cycles
 SCF Done:  E(UMN12SX) =  -3033.63319451     A.U. after   15 cycles
 SCF Done:  E(UB1B95) =  -3034.36448085     A.U. after   14 cycles
 Normal termination of Gaussian 16 at Tue Feb 11 23:02:35 2020.
 SCF Done:  E(UB3PW91) =  -3033.96131008     A.U. after   14 cycles
 Normal termination of Gaussian 16 at Tue Feb 11 23:17:14 2020.
 SCF Done:  E(UM06L) =  -3034.17528820     A.U. after   18 cycles
 Normal termination of Gaussian 16 at Tue Feb 11 23:37:16 2020.
 Gaussian 16:  ES64L-G16RevA.03 25-Dec-2016

                         Standard orientation:
 ---------------------------------------------------------------------
 Center     Atomic      Atomic             Coordinates (Angstroms)
 Number     Number       Type             X           Y           Z
 ---------------------------------------------------------------------
      1          8           0        0.443406    0.145415   -0.456687
      2          6           0        1.359970    1.249432   -0.360669
      3          6           0        2.898120    0.063831   -0.184761
      4          6           0        1.946449   -1.087535   -0.304278
      5          6           0        1.833480   -1.776080   -1.621604
      6         26           0       -1.373342   -0.058471    0.054640
      7         17           0       -1.870131   -2.002724   -0.860423
      8          6           0        1.560544   -1.876177    0.900147
      9         17           0       -2.395480    1.714868   -0.734280
     10         17           0       -1.382412   -0.157488    2.260604
     11          1           0        3.486797    0.198035   -1.093135
     12          1           0        2.411230   -2.532221    1.140451
     13          1           0        1.363880   -1.247256    1.768641
     14          1           0        0.688383   -2.502494    0.701956
     15          1           0        2.626999   -2.539081   -1.654341
     16          1           0        0.867880   -2.275968   -1.726488
     17          1           0        1.992338   -1.088527   -2.454416
     18          6           0        3.700258    0.247948    1.082622
     19          1           0        4.459437   -0.537209    1.196891
     20          1           0        4.226575    1.206969    1.051424
     21          1           0        3.076529    0.240135    1.980035
     22          6           0        1.167837    2.079576    0.876339
     23          1           0        1.976770    2.808527    0.984845
     24          1           0        0.222161    2.631410    0.786617
     25          1           0        1.104208    1.464023    1.775315
     26          6           0        1.430521    2.011775   -1.655150
     27          1           0        0.456937    2.488771   -1.829884
     28          1           0        2.199892    2.789144   -1.612630
     29          1           0        1.632943    1.346898   -2.498605
 ---------------------------------------------------------------------

 SCF Done:  E(UB97D3) =  -3034.60080347     A.U. after   16 cycles
 Normal termination of Gaussian 16 at Tue Feb 11 23:50:13 2020.
