 Gaussian 16, Revision A.03,

 --------------------------------
 #t pop=none jul-cc-pvdz upbe1pbe
 --------------------------------
 ------------------------
 theory_abbreviation pbe0
 ------------------------
 Symbolic Z-matrix:
 Charge =  0 Multiplicity = 6

 SCF Done:  E(UPBE1PBE) =  -3033.09963361     A.U. after   20 cycles
 Normal termination of Gaussian 16 at Tue Feb 11 13:58:52 2020.

 ---------------------------------------------------------------------
 #t pop=none jul-cc-pvdz guess=read upbe1pbe empiricaldispersion=gd3bj
 ---------------------------------------------------------------------
 -----------------------------
 theory_abbreviation pbe0_d3bj
 -----------------------------
 Symbolic Z-matrix:
 Charge =  0 Multiplicity = 6

 SCF Done:  E(UPBE1PBE) =  -3033.13762363     A.U. after    1 cycles
 Normal termination of Gaussian 16 at Tue Feb 11 14:00:05 2020.

 -----------------------------------------
 #t pop=none jul-cc-pvdz guess=read ub3lyp
 -----------------------------------------
 -------------------------
 theory_abbreviation b3lyp
 -------------------------
 Symbolic Z-matrix:
 Charge =  0 Multiplicity = 6

 SCF Done:  E(UB3LYP) =  -3034.31295864     A.U. after   14 cycles
 Normal termination of Gaussian 16 at Tue Feb 11 14:15:13 2020.

 -------------------------------------------------------------------
 #t pop=none jul-cc-pvdz guess=read ub3lyp empiricaldispersion=gd3bj
 -------------------------------------------------------------------
 ------------------------------
 theory_abbreviation b3lyp_d3bj
 ------------------------------
 Symbolic Z-matrix:
 Charge =  0 Multiplicity = 6

 SCF Done:  E(UB3LYP) =  -3034.38378548     A.U. after    1 cycles
 Normal termination of Gaussian 16 at Tue Feb 11 14:16:25 2020.

 ----------------------------------------
 #t pop=none jul-cc-pvdz guess=read ub97d
 ----------------------------------------
 ------------------------
 theory_abbreviation b97d
 ------------------------
 Symbolic Z-matrix:
 Charge =  0 Multiplicity = 6

 SCF Done:  E(UB97D) =  -3034.56601680     A.U. after   16 cycles

 ----------------------------------------------------------------
 #t pop=none jul-cc-pvdz guess=read ub97d empiricaldispersion=gd3
 ----------------------------------------------------------------
 -------------------------
 theory_abbreviation b97d3
 -------------------------
 Symbolic Z-matrix:
 Charge =  0 Multiplicity = 6

 SCF Done:  E(UB97D) =  -3034.56762680     A.U. after    1 cycles
 SCF Done:  E(UBHandHLYP) =  -3033.95516533     A.U. after   18 cycles
 SCF Done:  E(UBHandH) =  -3026.30228991     A.U. after   14 cycles
 SCF Done:  E(ULC-wPBE) =  -3033.44011987     A.U. after   19 cycles
 SCF Done:  E(UB-P86) =  -3034.62018282     A.U. after   17 cycles
 SCF Done:  E(UmPW1LYP) =  -3034.03113693     A.U. after   15 cycles
 SCF Done:  E(UmPW1PBE) =  -3033.87409246     A.U. after   15 cycles
 SCF Done:  E(UmPW3PBE) =  -3033.64653028     A.U. after   13 cycles
 SCF Done:  E(UM11) =  -3033.79713225     A.U. after   18 cycles
 SCF Done:  E(UN12SX) =  -3033.23934874     A.U. after   17 cycles
 SCF Done:  E(UMN12SX) =  -3033.63900577     A.U. after   15 cycles
 SCF Done:  E(UB1B95) =  -3034.36940698     A.U. after   16 cycles
 Normal termination of Gaussian 16 at Tue Feb 11 22:57:22 2020.
 SCF Done:  E(UB3PW91) =  -3033.96191570     A.U. after   15 cycles
 Normal termination of Gaussian 16 at Tue Feb 11 23:13:25 2020.
 SCF Done:  E(UM06L) =  -3034.18073563     A.U. after   17 cycles
 Normal termination of Gaussian 16 at Tue Feb 11 23:32:47 2020.
 Gaussian 16:  ES64L-G16RevA.03 25-Dec-2016

                         Standard orientation:
 ---------------------------------------------------------------------
 Center     Atomic      Atomic             Coordinates (Angstroms)
 Number     Number       Type             X           Y           Z
 ---------------------------------------------------------------------
      1          8           0       -0.351539   -0.078126   -0.513689
      2          6           0       -1.251660   -1.025138   -0.467116
      3          6           0       -3.099131    0.012865   -0.103938
      4          6           0       -2.211661    1.059794   -0.221965
      5          6           0       -2.002374    1.751878   -1.530078
      6         26           0        1.447126    0.052583    0.054430
      7         17           0        2.049329    1.990083   -0.789867
      8          6           0       -1.599855    1.725983    0.969917
      9         17           0        2.384888   -1.755059   -0.782496
     10         17           0        1.425900    0.034103    2.262648
     11          1           0       -3.630665   -0.272575   -1.008897
     12          1           0       -2.339368    2.439354    1.362514
     13          1           0       -1.353221    1.032276    1.774697
     14          1           0       -0.700350    2.281987    0.699969
     15          1           0       -2.529234    2.715455   -1.468974
     16          1           0       -0.944808    1.964595   -1.703110
     17          1           0       -2.420748    1.200179   -2.374658
     18          6           0       -3.748944   -0.428630    1.182010
     19          1           0       -4.669048    0.148716    1.343131
     20          1           0       -4.037686   -1.483331    1.144419
     21          1           0       -3.113373   -0.280118    2.057398
     22          6           0       -1.208873   -1.950108    0.718087
     23          1           0       -2.072943   -2.613355    0.770681
     24          1           0       -0.309516   -2.566261    0.571045
     25          1           0       -1.073018   -1.409413    1.655213
     26          6           0       -1.597399   -1.650444   -1.794344
     27          1           0       -0.716185   -2.244847   -2.075112
     28          1           0       -2.465474   -2.310488   -1.734508
     29          1           0       -1.739948   -0.896677   -2.569754
 ---------------------------------------------------------------------

 SCF Done:  E(UB97D3) =  -3034.60357507     A.U. after   15 cycles
 Normal termination of Gaussian 16 at Tue Feb 11 23:45:05 2020.
