 Gaussian 16, Revision A.03,

 --------------------------------
 #t pop=none jul-cc-pvdz upbe1pbe
 --------------------------------
 ------------------------
 theory_abbreviation pbe0
 ------------------------
 Symbolic Z-matrix:
 Charge =  0 Multiplicity = 6

 SCF Done:  E(UPBE1PBE) =  -3033.10917051     A.U. after   21 cycles
 Normal termination of Gaussian 16 at Tue Feb 11 14:46:58 2020.

 ---------------------------------------------------------------------
 #t pop=none jul-cc-pvdz guess=read upbe1pbe empiricaldispersion=gd3bj
 ---------------------------------------------------------------------
 -----------------------------
 theory_abbreviation pbe0_d3bj
 -----------------------------
 Symbolic Z-matrix:
 Charge =  0 Multiplicity = 6

 SCF Done:  E(UPBE1PBE) =  -3033.14622762     A.U. after    1 cycles
 Normal termination of Gaussian 16 at Tue Feb 11 14:48:10 2020.

 -----------------------------------------
 #t pop=none jul-cc-pvdz guess=read ub3lyp
 -----------------------------------------
 -------------------------
 theory_abbreviation b3lyp
 -------------------------
 Symbolic Z-matrix:
 Charge =  0 Multiplicity = 6

 SCF Done:  E(UB3LYP) =  -3034.32239538     A.U. after   13 cycles
 Normal termination of Gaussian 16 at Tue Feb 11 15:02:12 2020.

 -------------------------------------------------------------------
 #t pop=none jul-cc-pvdz guess=read ub3lyp empiricaldispersion=gd3bj
 -------------------------------------------------------------------
 ------------------------------
 theory_abbreviation b3lyp_d3bj
 ------------------------------
 Symbolic Z-matrix:
 Charge =  0 Multiplicity = 6

 SCF Done:  E(UB3LYP) =  -3034.39148631     A.U. after    1 cycles
 Normal termination of Gaussian 16 at Tue Feb 11 15:03:24 2020.

 ----------------------------------------
 #t pop=none jul-cc-pvdz guess=read ub97d
 ----------------------------------------
 ------------------------
 theory_abbreviation b97d
 ------------------------
 Symbolic Z-matrix:
 Charge =  0 Multiplicity = 6

 SCF Done:  E(UB97D) =  -3034.57579824     A.U. after   17 cycles

 ----------------------------------------------------------------
 #t pop=none jul-cc-pvdz guess=read ub97d empiricaldispersion=gd3
 ----------------------------------------------------------------
 -------------------------
 theory_abbreviation b97d3
 -------------------------
 Symbolic Z-matrix:
 Charge =  0 Multiplicity = 6

 SCF Done:  E(UB97D) =  -3034.57572278     A.U. after    1 cycles
 SCF Done:  E(UBHandHLYP) =  -3033.96430869     A.U. after   17 cycles
 SCF Done:  E(UBHandH) =  -3026.31156558     A.U. after   16 cycles
 SCF Done:  E(ULC-wPBE) =  -3033.44905477     A.U. after   18 cycles
 SCF Done:  E(UB-P86) =  -3034.62798041     A.U. after   17 cycles
 SCF Done:  E(UmPW1LYP) =  -3034.04058468     A.U. after   16 cycles
 SCF Done:  E(UmPW1PBE) =  -3033.88349829     A.U. after   16 cycles
 SCF Done:  E(UmPW3PBE) =  -3033.65595811     A.U. after   15 cycles
 SCF Done:  E(UM11) =  -3033.80735612     A.U. after   19 cycles
 SCF Done:  E(UN12SX) =  -3033.24918137     A.U. after   17 cycles
 SCF Done:  E(UMN12SX) =  -3033.64736457     A.U. after   17 cycles
 SCF Done:  E(UB1B95) =  -3034.37748131     A.U. after   16 cycles
 Normal termination of Gaussian 16 at Wed Feb 12 00:03:51 2020.
 SCF Done:  E(UB3PW91) =  -3033.97132875     A.U. after   16 cycles
 Normal termination of Gaussian 16 at Wed Feb 12 00:20:46 2020.
 SCF Done:  E(UM06L) =  -3034.19008694     A.U. after   18 cycles
 Normal termination of Gaussian 16 at Wed Feb 12 00:40:57 2020.
 Gaussian 16:  ES64L-G16RevA.03 25-Dec-2016

                         Standard orientation:
 ---------------------------------------------------------------------
 Center     Atomic      Atomic             Coordinates (Angstroms)
 Number     Number       Type             X           Y           Z
 ---------------------------------------------------------------------
      1          8           0       -0.314355   -0.187291   -0.721910
      2          6           0       -1.247006   -1.102218   -0.563681
      3          6           0       -2.732570   -0.316538    0.425413
      4          6           0       -2.500405    0.957831   -0.079764
      5          6           0       -3.044751    1.400089   -1.393478
      6         26           0        1.407729    0.121290   -0.024677
      7         17           0        1.926031    2.116091   -0.794747
      8          6           0       -1.629743    1.941580    0.610126
      9         17           0        2.660240   -1.539611   -0.728418
     10         17           0        1.196680    0.120011    2.190918
     11          1           0       -3.543451   -0.859859   -0.057598
     12          1           0       -2.267221    2.765429    0.965840
     13          1           0       -1.087222    1.533535    1.460483
     14          1           0       -0.913403    2.379240   -0.095314
     15          1           0       -3.489400    2.397096   -1.285185
     16          1           0       -2.211647    1.514213   -2.101077
     17          1           0       -3.790522    0.719683   -1.806877
     18          6           0       -2.598650   -0.594585    1.914261
     19          1           0       -3.353266   -0.018188    2.462010
     20          1           0       -2.776586   -1.650354    2.126619
     21          1           0       -1.617045   -0.329927    2.311942
     22          6           0       -0.882258   -2.278410    0.328638
     23          1           0       -1.719267   -2.963612    0.480617
     24          1           0       -0.086531   -2.812186   -0.207026
     25          1           0       -0.473281   -1.960816    1.287104
     26          6           0       -1.877356   -1.542350   -1.878745
     27          1           0       -1.104835   -2.115128   -2.405220
     28          1           0       -2.746544   -2.188551   -1.732324
     29          1           0       -2.139617   -0.698530   -2.515554
 ---------------------------------------------------------------------

 SCF Done:  E(UB97D3) =  -3034.61017826     A.U. after   16 cycles
 Normal termination of Gaussian 16 at Wed Feb 12 00:53:59 2020.
