 Gaussian 16, Revision A.03,

 --------------------------------
 #t pop=none jul-cc-pvdz upbe1pbe
 --------------------------------
 ------------------------
 theory_abbreviation pbe0
 ------------------------
 Symbolic Z-matrix:
 Charge =  0 Multiplicity = 6

 SCF Done:  E(UPBE1PBE) =  -3033.12891561     A.U. after   21 cycles
 Normal termination of Gaussian 16 at Tue Feb 11 23:39:41 2020.

 ---------------------------------------------------------------------
 #t pop=none jul-cc-pvdz guess=read upbe1pbe empiricaldispersion=gd3bj
 ---------------------------------------------------------------------
 -----------------------------
 theory_abbreviation pbe0_d3bj
 -----------------------------
 Symbolic Z-matrix:
 Charge =  0 Multiplicity = 6

 SCF Done:  E(UPBE1PBE) =  -3033.16613071     A.U. after    1 cycles
 Normal termination of Gaussian 16 at Tue Feb 11 23:40:49 2020.

 -----------------------------------------
 #t pop=none jul-cc-pvdz guess=read ub3lyp
 -----------------------------------------
 -------------------------
 theory_abbreviation b3lyp
 -------------------------
 Symbolic Z-matrix:
 Charge =  0 Multiplicity = 6

 SCF Done:  E(UB3LYP) =  -3034.34584606     A.U. after   13 cycles
 Normal termination of Gaussian 16 at Tue Feb 11 23:54:06 2020.

 -------------------------------------------------------------------
 #t pop=none jul-cc-pvdz guess=read ub3lyp empiricaldispersion=gd3bj
 -------------------------------------------------------------------
 ------------------------------
 theory_abbreviation b3lyp_d3bj
 ------------------------------
 Symbolic Z-matrix:
 Charge =  0 Multiplicity = 6

 SCF Done:  E(UB3LYP) =  -3034.41499904     A.U. after    1 cycles
 Normal termination of Gaussian 16 at Tue Feb 11 23:55:14 2020.

 ----------------------------------------
 #t pop=none jul-cc-pvdz guess=read ub97d
 ----------------------------------------
 ------------------------
 theory_abbreviation b97d
 ------------------------
 Symbolic Z-matrix:
 Charge =  0 Multiplicity = 6

 SCF Done:  E(UB97D) =  -3034.59846677     A.U. after   15 cycles

 ----------------------------------------------------------------
 #t pop=none jul-cc-pvdz guess=read ub97d empiricaldispersion=gd3
 ----------------------------------------------------------------
 -------------------------
 theory_abbreviation b97d3
 -------------------------
 Symbolic Z-matrix:
 Charge =  0 Multiplicity = 6

 SCF Done:  E(UB97D) =  -3034.59988042     A.U. after    1 cycles
 SCF Done:  E(UBHandHLYP) =  -3033.98733083     A.U. after   17 cycles
 SCF Done:  E(UBHandH) =  -3026.32753796     A.U. after   14 cycles
 SCF Done:  E(ULC-wPBE) =  -3033.46986779     A.U. after   19 cycles
 SCF Done:  E(UB-P86) =  -3034.64863424     A.U. after   16 cycles
 SCF Done:  E(UmPW1LYP) =  -3034.06411577     A.U. after   13 cycles
 SCF Done:  E(UmPW1PBE) =  -3033.90331254     A.U. after   13 cycles
 SCF Done:  E(UmPW3PBE) =  -3033.67623453     A.U. after   13 cycles
 SCF Done:  E(UM11) =  -3033.82739295     A.U. after   17 cycles
 SCF Done:  E(UN12SX) =  -3033.26778153     A.U. after   17 cycles
 SCF Done:  E(UMN12SX) =  -3033.66963325     A.U. after   16 cycles
 SCF Done:  E(UB1B95) =  -3034.39929220     A.U. after   14 cycles
 Normal termination of Gaussian 16 at Wed Feb 12 08:01:55 2020.
 SCF Done:  E(UB3PW91) =  -3033.99215838     A.U. after   13 cycles
 Normal termination of Gaussian 16 at Wed Feb 12 08:14:51 2020.
 SCF Done:  E(UM06L) =  -3034.21474130     A.U. after   17 cycles
 Normal termination of Gaussian 16 at Wed Feb 12 08:33:15 2020.
 Gaussian 16:  ES64L-G16RevA.03 25-Dec-2016

                         Standard orientation:
 ---------------------------------------------------------------------
 Center     Atomic      Atomic             Coordinates (Angstroms)
 Number     Number       Type             X           Y           Z
 ---------------------------------------------------------------------
      1          8           0        0.256917    0.284189   -0.826853
      2          6           0        1.074622    1.230456   -0.656989
      3          6           0        3.012930    0.126986    0.472310
      4          6           0        2.552203   -0.973943   -0.164417
      5          6           0        2.965736   -1.307455   -1.569216
      6         26           0       -1.457156   -0.136336    0.016013
      7         17           0       -2.079376   -2.003430   -0.917569
      8          6           0        1.637590   -1.980984    0.462387
      9         17           0       -2.638345    1.631758   -0.509603
     10         17           0       -1.132393   -0.289476    2.186399
     11          1           0        3.741056    0.740032   -0.057594
     12          1           0        2.176943   -2.929422    0.590904
     13          1           0        1.246332   -1.679293    1.433036
     14          1           0        0.792127   -2.197637   -0.201662
     15          1           0        3.422024   -2.305388   -1.591514
     16          1           0        2.088784   -1.354843   -2.228272
     17          1           0        3.689322   -0.597148   -1.977662
     18          6           0        2.881422    0.409740    1.946954
     19          1           0        3.686925   -0.097220    2.495081
     20          1           0        2.978528    1.477641    2.162296
     21          1           0        1.933363    0.064771    2.366914
     22          6           0        0.888552    2.200633    0.470641
     23          1           0        1.772377    2.817564    0.635978
     24          1           0        0.060038    2.855194    0.160794
     25          1           0        0.582333    1.706580    1.392277
     26          6           0        1.841803    1.704935   -1.858543
     27          1           0        1.189262    2.441168   -2.350371
     28          1           0        2.771790    2.208244   -1.591039
     29          1           0        2.022293    0.898304   -2.566307
 ---------------------------------------------------------------------

 SCF Done:  E(UB97D3) =  -3034.63484887     A.U. after   16 cycles
 Normal termination of Gaussian 16 at Wed Feb 12 08:45:48 2020.
