 Gaussian 16, Revision A.03,

 --------------------------------
 #t pop=none jul-cc-pvdz upbe1pbe
 --------------------------------
 ------------------------
 theory_abbreviation pbe0
 ------------------------
 Symbolic Z-matrix:
 Charge =  0 Multiplicity = 6

 SCF Done:  E(UPBE1PBE) =  -3033.12136141     A.U. after   21 cycles
 Normal termination of Gaussian 16 at Tue Feb 11 13:58:24 2020.

 ---------------------------------------------------------------------
 #t pop=none jul-cc-pvdz guess=read upbe1pbe empiricaldispersion=gd3bj
 ---------------------------------------------------------------------
 -----------------------------
 theory_abbreviation pbe0_d3bj
 -----------------------------
 Symbolic Z-matrix:
 Charge =  0 Multiplicity = 6

 SCF Done:  E(UPBE1PBE) =  -3033.15803126     A.U. after    1 cycles
 Normal termination of Gaussian 16 at Tue Feb 11 13:59:32 2020.

 -----------------------------------------
 #t pop=none jul-cc-pvdz guess=read ub3lyp
 -----------------------------------------
 -------------------------
 theory_abbreviation b3lyp
 -------------------------
 Symbolic Z-matrix:
 Charge =  0 Multiplicity = 6

 SCF Done:  E(UB3LYP) =  -3034.33755046     A.U. after   14 cycles
 Normal termination of Gaussian 16 at Tue Feb 11 14:13:41 2020.

 -------------------------------------------------------------------
 #t pop=none jul-cc-pvdz guess=read ub3lyp empiricaldispersion=gd3bj
 -------------------------------------------------------------------
 ------------------------------
 theory_abbreviation b3lyp_d3bj
 ------------------------------
 Symbolic Z-matrix:
 Charge =  0 Multiplicity = 6

 SCF Done:  E(UB3LYP) =  -3034.40582991     A.U. after    1 cycles
 Normal termination of Gaussian 16 at Tue Feb 11 14:14:49 2020.

 ----------------------------------------
 #t pop=none jul-cc-pvdz guess=read ub97d
 ----------------------------------------
 ------------------------
 theory_abbreviation b97d
 ------------------------
 Symbolic Z-matrix:
 Charge =  0 Multiplicity = 6

 SCF Done:  E(UB97D) =  -3034.59011434     A.U. after   15 cycles

 ----------------------------------------------------------------
 #t pop=none jul-cc-pvdz guess=read ub97d empiricaldispersion=gd3
 ----------------------------------------------------------------
 -------------------------
 theory_abbreviation b97d3
 -------------------------
 Symbolic Z-matrix:
 Charge =  0 Multiplicity = 6

 SCF Done:  E(UB97D) =  -3034.59148902     A.U. after    1 cycles
 SCF Done:  E(UBHandHLYP) =  -3033.97712125     A.U. after   18 cycles
 SCF Done:  E(UBHandH) =  -3026.31920360     A.U. after   16 cycles
 SCF Done:  E(ULC-wPBE) =  -3033.45951575     A.U. after   19 cycles
 SCF Done:  E(UB-P86) =  -3034.64141045     A.U. after   17 cycles
 SCF Done:  E(UmPW1LYP) =  -3034.05536187     A.U. after   16 cycles
 SCF Done:  E(UmPW1PBE) =  -3033.89596319     A.U. after   16 cycles
 SCF Done:  E(UmPW3PBE) =  -3033.66899335     A.U. after   13 cycles
 SCF Done:  E(UM11) =  -3033.81725539     A.U. after   19 cycles
 SCF Done:  E(UN12SX) =  -3033.26030448     A.U. after   18 cycles
 SCF Done:  E(UMN12SX) =  -3033.65854856     A.U. after   17 cycles
 SCF Done:  E(UB1B95) =  -3034.38996397     A.U. after   15 cycles
 Normal termination of Gaussian 16 at Tue Feb 11 22:44:42 2020.
 SCF Done:  E(UB3PW91) =  -3033.98483243     A.U. after   15 cycles
 Normal termination of Gaussian 16 at Tue Feb 11 23:01:14 2020.
 SCF Done:  E(UM06L) =  -3034.20299094     A.U. after   17 cycles
 Normal termination of Gaussian 16 at Tue Feb 11 23:19:39 2020.
 Gaussian 16:  ES64L-G16RevA.03 25-Dec-2016

                         Standard orientation:
 ---------------------------------------------------------------------
 Center     Atomic      Atomic             Coordinates (Angstroms)
 Number     Number       Type             X           Y           Z
 ---------------------------------------------------------------------
      1          8           0       -0.297741   -0.229320   -0.589776
      2          6           0       -1.125357   -1.185110   -0.395517
      3          6           0       -2.747977   -0.289895    0.790103
      4          6           0       -2.918061    0.762609   -0.067812
      5          6           0       -3.873317    0.702649   -1.219587
      6         26           0        1.509315    0.179771   -0.070062
      7         17           0        1.870493    2.116789   -1.016720
      8          6           0       -2.114941    2.011855    0.056171
      9         17           0        2.626244   -1.526119   -0.877723
     10         17           0        1.606339    0.274077    2.126644
     11          1           0       -3.424781   -1.134196    0.665246
     12          1           0       -2.603171    2.860719   -0.430467
     13          1           0       -1.879613    2.270575    1.090846
     14          1           0       -1.154215    1.845630   -0.458756
     15          1           0       -4.666781    1.444714   -1.056095
     16          1           0       -3.382988    0.983319   -2.160698
     17          1           0       -4.343963   -0.276316   -1.333119
     18          6           0       -2.135939   -0.120919    2.163863
     19          1           0       -2.743414    0.573628    2.757040
     20          1           0       -2.107931   -1.068907    2.704361
     21          1           0       -1.119132    0.277569    2.130423
     22          6           0       -0.769183   -2.245174    0.622376
     23          1           0       -1.620462   -2.873522    0.891326
     24          1           0       -0.014899   -2.874706    0.129542
     25          1           0       -0.306357   -1.822577    1.513107
     26          6           0       -1.855728   -1.681628   -1.621689
     27          1           0       -1.159423   -2.360678   -2.131707
     28          1           0       -2.759256   -2.244064   -1.377540
     29          1           0       -2.083143   -0.867686   -2.308537
 ---------------------------------------------------------------------

 SCF Done:  E(UB97D3) =  -3034.62675487     A.U. after   15 cycles
 Normal termination of Gaussian 16 at Tue Feb 11 23:31:27 2020.
