 Gaussian 16, Revision A.03,

 --------------------------------
 #t pop=none jul-cc-pvdz upbe1pbe
 --------------------------------
 ------------------------
 theory_abbreviation pbe0
 ------------------------
 Symbolic Z-matrix:
 Charge =  0 Multiplicity = 6

 SCF Done:  E(UPBE1PBE) =  -3033.12437547     A.U. after   21 cycles
 Normal termination of Gaussian 16 at Tue Feb 11 13:59:42 2020.

 ---------------------------------------------------------------------
 #t pop=none jul-cc-pvdz guess=read upbe1pbe empiricaldispersion=gd3bj
 ---------------------------------------------------------------------
 -----------------------------
 theory_abbreviation pbe0_d3bj
 -----------------------------
 Symbolic Z-matrix:
 Charge =  0 Multiplicity = 6

 SCF Done:  E(UPBE1PBE) =  -3033.16117804     A.U. after    1 cycles
 Normal termination of Gaussian 16 at Tue Feb 11 14:00:52 2020.

 -----------------------------------------
 #t pop=none jul-cc-pvdz guess=read ub3lyp
 -----------------------------------------
 -------------------------
 theory_abbreviation b3lyp
 -------------------------
 Symbolic Z-matrix:
 Charge =  0 Multiplicity = 6

 SCF Done:  E(UB3LYP) =  -3034.34125072     A.U. after   13 cycles
 Normal termination of Gaussian 16 at Tue Feb 11 14:14:34 2020.

 -------------------------------------------------------------------
 #t pop=none jul-cc-pvdz guess=read ub3lyp empiricaldispersion=gd3bj
 -------------------------------------------------------------------
 ------------------------------
 theory_abbreviation b3lyp_d3bj
 ------------------------------
 Symbolic Z-matrix:
 Charge =  0 Multiplicity = 6

 SCF Done:  E(UB3LYP) =  -3034.40965332     A.U. after    1 cycles
 Normal termination of Gaussian 16 at Tue Feb 11 14:15:44 2020.

 ----------------------------------------
 #t pop=none jul-cc-pvdz guess=read ub97d
 ----------------------------------------
 ------------------------
 theory_abbreviation b97d
 ------------------------
 Symbolic Z-matrix:
 Charge =  0 Multiplicity = 6

 SCF Done:  E(UB97D) =  -3034.59401563     A.U. after   15 cycles

 ----------------------------------------------------------------
 #t pop=none jul-cc-pvdz guess=read ub97d empiricaldispersion=gd3
 ----------------------------------------------------------------
 -------------------------
 theory_abbreviation b97d3
 -------------------------
 Symbolic Z-matrix:
 Charge =  0 Multiplicity = 6

 SCF Done:  E(UB97D) =  -3034.59501037     A.U. after    1 cycles
 SCF Done:  E(UBHandHLYP) =  -3033.98122496     A.U. after   18 cycles
 SCF Done:  E(UBHandH) =  -3026.32171504     A.U. after   16 cycles
 SCF Done:  E(ULC-wPBE) =  -3033.46311523     A.U. after   19 cycles
 SCF Done:  E(UB-P86) =  -3034.64444095     A.U. after   16 cycles
 SCF Done:  E(UmPW1LYP) =  -3034.05921377     A.U. after   15 cycles
 SCF Done:  E(UmPW1PBE) =  -3033.89891534     A.U. after   16 cycles
 SCF Done:  E(UmPW3PBE) =  -3033.67198147     A.U. after   13 cycles
 SCF Done:  E(UM11) =  -3033.82072196     A.U. after   19 cycles
 SCF Done:  E(UN12SX) =  -3033.26324983     A.U. after   18 cycles
 SCF Done:  E(UMN12SX) =  -3033.66280966     A.U. after   16 cycles
 SCF Done:  E(UB1B95) =  -3034.39353805     A.U. after   14 cycles
 Normal termination of Gaussian 16 at Tue Feb 11 22:58:36 2020.
 SCF Done:  E(UB3PW91) =  -3033.98790244     A.U. after   16 cycles
 Normal termination of Gaussian 16 at Tue Feb 11 23:15:07 2020.
 SCF Done:  E(UM06L) =  -3034.20772556     A.U. after   18 cycles
 Normal termination of Gaussian 16 at Tue Feb 11 23:34:52 2020.
 Gaussian 16:  ES64L-G16RevA.03 25-Dec-2016

                         Standard orientation:
 ---------------------------------------------------------------------
 Center     Atomic      Atomic             Coordinates (Angstroms)
 Number     Number       Type             X           Y           Z
 ---------------------------------------------------------------------
      1          8           0        0.232801    0.298631   -0.765285
      2          6           0        1.097219    1.214794   -0.581835
      3          6           0        2.817325    0.311841    0.649391
      4          6           0        2.797121   -0.854938   -0.055660
      5          6           0        3.593022   -1.035549   -1.313344
      6         26           0       -1.495461   -0.170024   -0.035233
      7         17           0       -1.984516   -2.048718   -1.033953
      8          6           0        1.912500   -2.001087    0.312880
      9         17           0       -2.724181    1.561091   -0.574149
     10         17           0       -1.270470   -0.396324    2.142204
     11          1           0        3.527607    1.068130    0.317789
     12          1           0        2.428475   -2.957926    0.175511
     13          1           0        1.523620   -1.946163    1.329818
     14          1           0        1.051039   -2.008838   -0.373067
     15          1           0        4.301979   -1.862665   -1.175451
     16          1           0        2.946159   -1.323621   -2.152824
     17          1           0        4.163102   -0.144275   -1.585367
     18          6           0        2.378604    0.423685    2.093339
     19          1           0        3.064889   -0.150715    2.728177
     20          1           0        2.415041    1.458775    2.439256
     21          1           0        1.370649    0.043630    2.270346
     22          6           0        0.802185    2.292613    0.429454
     23          1           0        1.673338    2.909336    0.655329
     24          1           0        0.038816    2.926706   -0.043865
     25          1           0        0.366829    1.891346    1.344061
     26          6           0        1.881447    1.630658   -1.802218
     27          1           0        1.225756    2.314752   -2.358363
     28          1           0        2.798740    2.167864   -1.556159
     29          1           0        2.092844    0.780312   -2.448643
 ---------------------------------------------------------------------

 SCF Done:  E(UB97D3) =  -3034.63042909     A.U. after   15 cycles
 Normal termination of Gaussian 16 at Tue Feb 11 23:46:41 2020.
