 Gaussian 16, Revision A.03,

 --------------------------------
 #t pop=none jul-cc-pvdz upbe1pbe
 --------------------------------
 ------------------------
 theory_abbreviation pbe0
 ------------------------
 Symbolic Z-matrix:
 Charge =  0 Multiplicity = 6

 SCF Done:  E(UPBE1PBE) =  -3033.13245402     A.U. after   21 cycles
 Normal termination of Gaussian 16 at Tue Feb 11 13:59:37 2020.

 ---------------------------------------------------------------------
 #t pop=none jul-cc-pvdz guess=read upbe1pbe empiricaldispersion=gd3bj
 ---------------------------------------------------------------------
 -----------------------------
 theory_abbreviation pbe0_d3bj
 -----------------------------
 Symbolic Z-matrix:
 Charge =  0 Multiplicity = 6

 SCF Done:  E(UPBE1PBE) =  -3033.16882913     A.U. after    1 cycles
 Normal termination of Gaussian 16 at Tue Feb 11 14:00:47 2020.

 -----------------------------------------
 #t pop=none jul-cc-pvdz guess=read ub3lyp
 -----------------------------------------
 -------------------------
 theory_abbreviation b3lyp
 -------------------------
 Symbolic Z-matrix:
 Charge =  0 Multiplicity = 6

 SCF Done:  E(UB3LYP) =  -3034.35060196     A.U. after   13 cycles
 Normal termination of Gaussian 16 at Tue Feb 11 14:14:14 2020.

 -------------------------------------------------------------------
 #t pop=none jul-cc-pvdz guess=read ub3lyp empiricaldispersion=gd3bj
 -------------------------------------------------------------------
 ------------------------------
 theory_abbreviation b3lyp_d3bj
 ------------------------------
 Symbolic Z-matrix:
 Charge =  0 Multiplicity = 6

 SCF Done:  E(UB3LYP) =  -3034.41801416     A.U. after    1 cycles
 Normal termination of Gaussian 16 at Tue Feb 11 14:15:24 2020.

 ----------------------------------------
 #t pop=none jul-cc-pvdz guess=read ub97d
 ----------------------------------------
 ------------------------
 theory_abbreviation b97d
 ------------------------
 Symbolic Z-matrix:
 Charge =  0 Multiplicity = 6

 SCF Done:  E(UB97D) =  -3034.60185830     A.U. after   15 cycles

 ----------------------------------------------------------------
 #t pop=none jul-cc-pvdz guess=read ub97d empiricaldispersion=gd3
 ----------------------------------------------------------------
 -------------------------
 theory_abbreviation b97d3
 -------------------------
 Symbolic Z-matrix:
 Charge =  0 Multiplicity = 6

 SCF Done:  E(UB97D) =  -3034.60284474     A.U. after    1 cycles
 SCF Done:  E(UBHandHLYP) =  -3033.99158931     A.U. after   16 cycles
 SCF Done:  E(UBHandH) =  -3026.32871750     A.U. after   14 cycles
 SCF Done:  E(ULC-wPBE) =  -3033.47234331     A.U. after   19 cycles
 SCF Done:  E(UB-P86) =  -3034.65101665     A.U. after   16 cycles
 SCF Done:  E(UmPW1LYP) =  -3034.06879361     A.U. after   13 cycles
 SCF Done:  E(UmPW1PBE) =  -3033.90697951     A.U. after   14 cycles
 SCF Done:  E(UmPW3PBE) =  -3033.68003965     A.U. after   13 cycles
 SCF Done:  E(UM11) =  -3033.82974394     A.U. after   17 cycles
 SCF Done:  E(UN12SX) =  -3033.27123537     A.U. after   16 cycles
 SCF Done:  E(UMN12SX) =  -3033.67248901     A.U. after   16 cycles
 SCF Done:  E(UB1B95) =  -3034.40237116     A.U. after   14 cycles
 Normal termination of Gaussian 16 at Tue Feb 11 22:28:31 2020.
 SCF Done:  E(UB3PW91) =  -3033.99619953     A.U. after   13 cycles
 Normal termination of Gaussian 16 at Tue Feb 11 22:41:56 2020.
 SCF Done:  E(UM06L) =  -3034.21750783     A.U. after   18 cycles
 Normal termination of Gaussian 16 at Tue Feb 11 23:02:51 2020.
 Gaussian 16:  ES64L-G16RevA.03 25-Dec-2016

                         Standard orientation:
 ---------------------------------------------------------------------
 Center     Atomic      Atomic             Coordinates (Angstroms)
 Number     Number       Type             X           Y           Z
 ---------------------------------------------------------------------
      1          8           0        0.164551    0.381364   -0.871423
      2          6           0        1.001008    1.301816   -0.671104
      3          6           0        2.947108    0.251740    0.598753
      4          6           0        2.768989   -0.892938   -0.101304
      5          6           0        3.414553   -1.107550   -1.441277
      6         26           0       -1.504058   -0.176115   -0.011324
      7         17           0       -2.022259   -2.034268   -1.020144
      8          6           0        1.881199   -2.012072    0.354528
      9         17           0       -2.792269    1.543955   -0.419695
     10         17           0       -1.104594   -0.429708    2.133574
     11          1           0        3.642277    0.981104    0.183554
     12          1           0        2.426799   -2.964112    0.343012
     13          1           0        1.464705   -1.862544    1.350460
     14          1           0        1.043866   -2.128304   -0.348544
     15          1           0        4.050996   -2.001438   -1.407761
     16          1           0        2.659367   -1.298387   -2.216074
     17          1           0        4.037177   -0.262974   -1.748302
     18          6           0        2.600719    0.447062    2.054946
     19          1           0        3.353434   -0.048600    2.682293
     20          1           0        2.609838    1.504623    2.330819
     21          1           0        1.626041    0.036121    2.326557
     22          6           0        0.781155    2.284631    0.439497
     23          1           0        1.666592    2.886152    0.646604
     24          1           0       -0.019261    2.950998    0.084474
     25          1           0        0.419554    1.801972    1.347358
     26          6           0        1.838559    1.727807   -1.842964
     27          1           0        1.228066    2.456038   -2.396661
     28          1           0        2.762110    2.223768   -1.542981
     29          1           0        2.042874    0.891054   -2.508942
 ---------------------------------------------------------------------

 SCF Done:  E(UB97D3) =  -3034.63804397     A.U. after   15 cycles
 Normal termination of Gaussian 16 at Tue Feb 11 23:14:46 2020.
