 Gaussian 16, Revision A.03,

 --------------------------------
 #t pop=none jul-cc-pvdz upbe1pbe
 --------------------------------
 ------------------------
 theory_abbreviation pbe0
 ------------------------
 Symbolic Z-matrix:
 Charge =  0 Multiplicity = 6

 SCF Done:  E(UPBE1PBE) =  -3033.10774728     A.U. after   20 cycles
 Normal termination of Gaussian 16 at Tue Feb 11 20:04:32 2020.

 ---------------------------------------------------------------------
 #t pop=none jul-cc-pvdz guess=read upbe1pbe empiricaldispersion=gd3bj
 ---------------------------------------------------------------------
 -----------------------------
 theory_abbreviation pbe0_d3bj
 -----------------------------
 Symbolic Z-matrix:
 Charge =  0 Multiplicity = 6

 SCF Done:  E(UPBE1PBE) =  -3033.14574147     A.U. after    1 cycles
 Normal termination of Gaussian 16 at Tue Feb 11 20:05:41 2020.

 -----------------------------------------
 #t pop=none jul-cc-pvdz guess=read ub3lyp
 -----------------------------------------
 -------------------------
 theory_abbreviation b3lyp
 -------------------------
 Symbolic Z-matrix:
 Charge =  0 Multiplicity = 6

 SCF Done:  E(UB3LYP) =  -3034.32201503     A.U. after   14 cycles
 Normal termination of Gaussian 16 at Tue Feb 11 20:19:53 2020.

 -------------------------------------------------------------------
 #t pop=none jul-cc-pvdz guess=read ub3lyp empiricaldispersion=gd3bj
 -------------------------------------------------------------------
 ------------------------------
 theory_abbreviation b3lyp_d3bj
 ------------------------------
 Symbolic Z-matrix:
 Charge =  0 Multiplicity = 6

 SCF Done:  E(UB3LYP) =  -3034.39282793     A.U. after    1 cycles
 Normal termination of Gaussian 16 at Tue Feb 11 20:21:01 2020.

 ----------------------------------------
 #t pop=none jul-cc-pvdz guess=read ub97d
 ----------------------------------------
 ------------------------
 theory_abbreviation b97d
 ------------------------
 Symbolic Z-matrix:
 Charge =  0 Multiplicity = 6

 SCF Done:  E(UB97D) =  -3034.57514705     A.U. after   15 cycles

 ----------------------------------------------------------------
 #t pop=none jul-cc-pvdz guess=read ub97d empiricaldispersion=gd3
 ----------------------------------------------------------------
 -------------------------
 theory_abbreviation b97d3
 -------------------------
 Symbolic Z-matrix:
 Charge =  0 Multiplicity = 6

 SCF Done:  E(UB97D) =  -3034.57695041     A.U. after    1 cycles
 SCF Done:  E(UBHandHLYP) =  -3033.96395579     A.U. after   18 cycles
 SCF Done:  E(UBHandH) =  -3026.30955351     A.U. after   15 cycles
 SCF Done:  E(ULC-wPBE) =  -3033.44843179     A.U. after   19 cycles
 SCF Done:  E(UB-P86) =  -3034.62849853     A.U. after   16 cycles
 SCF Done:  E(UmPW1LYP) =  -3034.04018028     A.U. after   14 cycles
 SCF Done:  E(UmPW1PBE) =  -3033.88221908     A.U. after   15 cycles
 SCF Done:  E(UmPW3PBE) =  -3033.65480097     A.U. after   13 cycles
 SCF Done:  E(UM11) =  -3033.80557515     A.U. after   17 cycles
 SCF Done:  E(UN12SX) =  -3033.24703652     A.U. after   17 cycles
 SCF Done:  E(UMN12SX) =  -3033.64737807     A.U. after   16 cycles
 SCF Done:  E(UB1B95) =  -3034.37785590     A.U. after   15 cycles
 Normal termination of Gaussian 16 at Wed Feb 12 04:29:03 2020.
 SCF Done:  E(UB3PW91) =  -3033.97032643     A.U. after   15 cycles
 Normal termination of Gaussian 16 at Wed Feb 12 04:43:58 2020.
 SCF Done:  E(UM06L) =  -3034.19057013     A.U. after   17 cycles
 Normal termination of Gaussian 16 at Wed Feb 12 05:02:25 2020.
 Gaussian 16:  ES64L-G16RevA.03 25-Dec-2016

                         Standard orientation:
 ---------------------------------------------------------------------
 Center     Atomic      Atomic             Coordinates (Angstroms)
 Number     Number       Type             X           Y           Z
 ---------------------------------------------------------------------
      1          8           0       -0.332478   -0.106252   -0.585128
      2          6           0       -1.215356   -1.041051   -0.524487
      3          6           0       -3.136225    0.006709   -0.000122
      4          6           0       -2.283108    1.052311   -0.207288
      5          6           0       -2.157995    1.705325   -1.548167
      6         26           0        1.456919    0.064067    0.054538
      7         17           0        2.073977    1.995534   -0.775593
      8          6           0       -1.571743    1.749643    0.911454
      9         17           0        2.426836   -1.732805   -0.760984
     10         17           0        1.392223    0.034192    2.257860
     11          1           0       -3.716410   -0.330019   -0.856461
     12          1           0       -2.253027    2.509684    1.320380
     13          1           0       -1.289475    1.086723    1.730306
     14          1           0       -0.676826    2.264692    0.555345
     15          1           0       -2.546437    2.729235   -1.460426
     16          1           0       -1.108493    1.785261   -1.846320
     17          1           0       -2.732521    1.196149   -2.325495
     18          6           0       -3.651931   -0.448232    1.339291
     19          1           0       -4.573789    0.099131    1.577823
     20          1           0       -3.907843   -1.512061    1.336129
     21          1           0       -2.947649   -0.268037    2.154315
     22          6           0       -1.161783   -1.988722    0.640304
     23          1           0       -2.037611   -2.634776    0.702198
     24          1           0       -0.279789   -2.620312    0.456143
     25          1           0       -0.990343   -1.468932    1.583184
     26          6           0       -1.673649   -1.605503   -1.843633
     27          1           0       -0.838128   -2.226593   -2.197494
     28          1           0       -2.560508   -2.234664   -1.748000
     29          1           0       -1.832111   -0.821749   -2.584501
 ---------------------------------------------------------------------

 SCF Done:  E(UB97D3) =  -3034.61291572     A.U. after   16 cycles
 Normal termination of Gaussian 16 at Wed Feb 12 05:15:06 2020.
