 Gaussian 16, Revision A.03,

 --------------------------------
 #t pop=none jul-cc-pvdz upbe1pbe
 --------------------------------
 ------------------------
 theory_abbreviation pbe0
 ------------------------
 Symbolic Z-matrix:
 Charge =  0 Multiplicity = 6

 SCF Done:  E(UPBE1PBE) =  -3033.13478601     A.U. after   20 cycles
 Normal termination of Gaussian 16 at Tue Feb 11 13:59:11 2020.

 ---------------------------------------------------------------------
 #t pop=none jul-cc-pvdz guess=read upbe1pbe empiricaldispersion=gd3bj
 ---------------------------------------------------------------------
 -----------------------------
 theory_abbreviation pbe0_d3bj
 -----------------------------
 Symbolic Z-matrix:
 Charge =  0 Multiplicity = 6

 SCF Done:  E(UPBE1PBE) =  -3033.17121742     A.U. after    1 cycles
 Normal termination of Gaussian 16 at Tue Feb 11 14:00:22 2020.

 -----------------------------------------
 #t pop=none jul-cc-pvdz guess=read ub3lyp
 -----------------------------------------
 -------------------------
 theory_abbreviation b3lyp
 -------------------------
 Symbolic Z-matrix:
 Charge =  0 Multiplicity = 6

 SCF Done:  E(UB3LYP) =  -3034.35299577     A.U. after   13 cycles
 Normal termination of Gaussian 16 at Tue Feb 11 14:14:02 2020.

 -------------------------------------------------------------------
 #t pop=none jul-cc-pvdz guess=read ub3lyp empiricaldispersion=gd3bj
 -------------------------------------------------------------------
 ------------------------------
 theory_abbreviation b3lyp_d3bj
 ------------------------------
 Symbolic Z-matrix:
 Charge =  0 Multiplicity = 6

 SCF Done:  E(UB3LYP) =  -3034.42044932     A.U. after    1 cycles
 Normal termination of Gaussian 16 at Tue Feb 11 14:15:12 2020.

 ----------------------------------------
 #t pop=none jul-cc-pvdz guess=read ub97d
 ----------------------------------------
 ------------------------
 theory_abbreviation b97d
 ------------------------
 Symbolic Z-matrix:
 Charge =  0 Multiplicity = 6

 SCF Done:  E(UB97D) =  -3034.60294612     A.U. after   17 cycles

 ----------------------------------------------------------------
 #t pop=none jul-cc-pvdz guess=read ub97d empiricaldispersion=gd3
 ----------------------------------------------------------------
 -------------------------
 theory_abbreviation b97d3
 -------------------------
 Symbolic Z-matrix:
 Charge =  0 Multiplicity = 6

 SCF Done:  E(UB97D) =  -3034.60509265     A.U. after    1 cycles
 SCF Done:  E(UBHandHLYP) =  -3033.99516300     A.U. after   18 cycles
 SCF Done:  E(UBHandH) =  -3026.33147492     A.U. after   14 cycles
 SCF Done:  E(ULC-wPBE) =  -3033.47668084     A.U. after   17 cycles
 SCF Done:  E(UB-P86) =  -3034.65251097     A.U. after   17 cycles
 SCF Done:  E(UmPW1LYP) =  -3034.07137184     A.U. after   13 cycles
 SCF Done:  E(UmPW1PBE) =  -3033.90927611     A.U. after   14 cycles
 SCF Done:  E(UmPW3PBE) =  -3033.68218585     A.U. after   13 cycles
 SCF Done:  E(UM11) =  -3033.83416895     A.U. after   17 cycles
 SCF Done:  E(UN12SX) =  -3033.27365114     A.U. after   17 cycles
 SCF Done:  E(UMN12SX) =  -3033.67639129     A.U. after   16 cycles
 SCF Done:  E(UB1B95) =  -3034.40577120     A.U. after   14 cycles
 Normal termination of Gaussian 16 at Tue Feb 11 22:41:30 2020.
 SCF Done:  E(UB3PW91) =  -3033.99841830     A.U. after   15 cycles
 Normal termination of Gaussian 16 at Tue Feb 11 22:58:20 2020.
 SCF Done:  E(UM06L) =  -3034.22085335     A.U. after   17 cycles
 Normal termination of Gaussian 16 at Tue Feb 11 23:17:12 2020.
 Gaussian 16:  ES64L-G16RevA.03 25-Dec-2016

                         Standard orientation:
 ---------------------------------------------------------------------
 Center     Atomic      Atomic             Coordinates (Angstroms)
 Number     Number       Type             X           Y           Z
 ---------------------------------------------------------------------
      1          8           0        0.252541    0.360462   -0.803119
      2          6           0        0.970328    1.367298   -0.619497
      3          6           0        3.230610   -0.040113    0.396777
      4          6           0        2.536871   -0.978688   -0.275356
      5          6           0        2.772264   -1.225187   -1.741799
      6         26           0       -1.466700   -0.151431    0.044146
      7         17           0       -2.095859   -1.942947   -1.012029
      8          6           0        1.601797   -1.961481    0.370337
      9         17           0       -2.634316    1.651616   -0.386123
     10         17           0       -1.148816   -0.409828    2.196855
     11          1           0        3.952997    0.549536   -0.169400
     12          1           0        2.104638   -2.934736    0.456975
     13          1           0        1.272243   -1.668419    1.367124
     14          1           0        0.717141   -2.132653   -0.252301
     15          1           0        3.143803   -2.247033   -1.894731
     16          1           0        1.834052   -1.150414   -2.305762
     17          1           0        3.505702   -0.534903   -2.169488
     18          6           0        3.219351    0.211202    1.879131
     19          1           0        4.096904   -0.248860    2.354020
     20          1           0        3.271402    1.282824    2.104455
     21          1           0        2.331853   -0.193842    2.372385
     22          6           0        0.871192    2.174712    0.634491
     23          1           0        1.752551    2.799047    0.787529
     24          1           0       -0.005520    2.829439    0.518995
     25          1           0        0.690017    1.539343    1.502491
     26          6           0        1.742311    1.921995   -1.774426
     27          1           0        1.160249    2.774548   -2.155004
     28          1           0        2.717167    2.301994   -1.463190
     29          1           0        1.843174    1.188905   -2.572862
 ---------------------------------------------------------------------

 SCF Done:  E(UB97D3) =  -3034.63949295     A.U. after   16 cycles
 Normal termination of Gaussian 16 at Tue Feb 11 23:29:50 2020.
