 Gaussian 16, Revision A.03,

 --------------------------------
 #t pop=none jul-cc-pvdz upbe1pbe
 --------------------------------
 ------------------------
 theory_abbreviation pbe0
 ------------------------
 Symbolic Z-matrix:
 Charge =  0 Multiplicity = 6

 SCF Done:  E(UPBE1PBE) =  -3033.10934874     A.U. after   21 cycles
 Normal termination of Gaussian 16 at Tue Feb 11 13:59:32 2020.

 ---------------------------------------------------------------------
 #t pop=none jul-cc-pvdz guess=read upbe1pbe empiricaldispersion=gd3bj
 ---------------------------------------------------------------------
 -----------------------------
 theory_abbreviation pbe0_d3bj
 -----------------------------
 Symbolic Z-matrix:
 Charge =  0 Multiplicity = 6

 SCF Done:  E(UPBE1PBE) =  -3033.14663883     A.U. after    1 cycles
 Normal termination of Gaussian 16 at Tue Feb 11 14:00:44 2020.

 -----------------------------------------
 #t pop=none jul-cc-pvdz guess=read ub3lyp
 -----------------------------------------
 -------------------------
 theory_abbreviation b3lyp
 -------------------------
 Symbolic Z-matrix:
 Charge =  0 Multiplicity = 6

 SCF Done:  E(UB3LYP) =  -3034.32271105     A.U. after   13 cycles
 Normal termination of Gaussian 16 at Tue Feb 11 14:14:45 2020.

 -------------------------------------------------------------------
 #t pop=none jul-cc-pvdz guess=read ub3lyp empiricaldispersion=gd3bj
 -------------------------------------------------------------------
 ------------------------------
 theory_abbreviation b3lyp_d3bj
 ------------------------------
 Symbolic Z-matrix:
 Charge =  0 Multiplicity = 6

 SCF Done:  E(UB3LYP) =  -3034.39224015     A.U. after    1 cycles
 Normal termination of Gaussian 16 at Tue Feb 11 14:15:57 2020.

 ----------------------------------------
 #t pop=none jul-cc-pvdz guess=read ub97d
 ----------------------------------------
 ------------------------
 theory_abbreviation b97d
 ------------------------
 Symbolic Z-matrix:
 Charge =  0 Multiplicity = 6

 SCF Done:  E(UB97D) =  -3034.57626680     A.U. after   17 cycles

 ----------------------------------------------------------------
 #t pop=none jul-cc-pvdz guess=read ub97d empiricaldispersion=gd3
 ----------------------------------------------------------------
 -------------------------
 theory_abbreviation b97d3
 -------------------------
 Symbolic Z-matrix:
 Charge =  0 Multiplicity = 6

 SCF Done:  E(UB97D) =  -3034.57642137     A.U. after    1 cycles
 SCF Done:  E(UBHandHLYP) =  -3033.96461013     A.U. after   18 cycles
 SCF Done:  E(UBHandH) =  -3026.31174262     A.U. after   16 cycles
 SCF Done:  E(ULC-wPBE) =  -3033.44936125     A.U. after   18 cycles
 SCF Done:  E(UB-P86) =  -3034.62856222     A.U. after   17 cycles
 SCF Done:  E(UmPW1LYP) =  -3034.04090871     A.U. after   15 cycles
 SCF Done:  E(UmPW1PBE) =  -3033.88369009     A.U. after   16 cycles
 SCF Done:  E(UmPW3PBE) =  -3033.65616492     A.U. after   15 cycles
 SCF Done:  E(UM11) =  -3033.80772403     A.U. after   19 cycles
 SCF Done:  E(UN12SX) =  -3033.24922001     A.U. after   17 cycles
 SCF Done:  E(UMN12SX) =  -3033.64780060     A.U. after   17 cycles
 SCF Done:  E(UB1B95) =  -3034.37792843     A.U. after   16 cycles
 Normal termination of Gaussian 16 at Tue Feb 11 23:10:20 2020.
 SCF Done:  E(UB3PW91) =  -3033.97154779     A.U. after   16 cycles
 Normal termination of Gaussian 16 at Tue Feb 11 23:26:39 2020.
 SCF Done:  E(UM06L) =  -3034.19048373     A.U. after   18 cycles
 Normal termination of Gaussian 16 at Tue Feb 11 23:46:28 2020.
 Gaussian 16:  ES64L-G16RevA.03 25-Dec-2016

                         Standard orientation:
 ---------------------------------------------------------------------
 Center     Atomic      Atomic             Coordinates (Angstroms)
 Number     Number       Type             X           Y           Z
 ---------------------------------------------------------------------
      1          8           0       -0.321375   -0.166819   -0.719714
      2          6           0       -1.243549   -1.087723   -0.578245
      3          6           0       -2.794123   -0.269118    0.383840
      4          6           0       -2.456591    0.980393   -0.107554
      5          6           0       -2.900278    1.455165   -1.448471
      6         26           0        1.407805    0.111647   -0.010316
      7         17           0        1.964469    2.098332   -0.766341
      8          6           0       -1.595980    1.930459    0.644108
      9         17           0        2.623381   -1.569611   -0.730919
     10         17           0        1.191930    0.086773    2.203207
     11          1           0       -3.587425   -0.785458   -0.153804
     12          1           0       -2.253457    2.709344    1.061210
     13          1           0       -1.050985    1.474333    1.468627
     14          1           0       -0.887380    2.431261   -0.023539
     15          1           0       -3.299419    2.472832   -1.355365
     16          1           0       -2.023411    1.529876   -2.105947
     17          1           0       -3.657463    0.817972   -1.907910
     18          6           0       -2.734220   -0.577488    1.868363
     19          1           0       -3.513028   -0.008279    2.390078
     20          1           0       -2.924658   -1.636200    2.054887
     21          1           0       -1.773389   -0.321425    2.319668
     22          6           0       -0.915151   -2.241669    0.350551
     23          1           0       -1.757700   -2.923352    0.484103
     24          1           0       -0.100601   -2.787173   -0.144668
     25          1           0       -0.540304   -1.904788    1.316222
     26          6           0       -1.859565   -1.539277   -1.893223
     27          1           0       -1.079175   -2.117177   -2.403408
     28          1           0       -2.728882   -2.185388   -1.749554
     29          1           0       -2.114168   -0.702492   -2.541971
 ---------------------------------------------------------------------

 SCF Done:  E(UB97D3) =  -3034.61113639     A.U. after   15 cycles
 Normal termination of Gaussian 16 at Tue Feb 11 23:58:24 2020.
