 Gaussian 16, Revision A.03,

 --------------------------------
 #t pop=none jul-cc-pvdz upbe1pbe
 --------------------------------
 ------------------------
 theory_abbreviation pbe0
 ------------------------
 Symbolic Z-matrix:
 Charge =  0 Multiplicity = 6

 SCF Done:  E(UPBE1PBE) =  -3033.12508500     A.U. after   20 cycles
 Normal termination of Gaussian 16 at Tue Feb 11 13:58:50 2020.

 ---------------------------------------------------------------------
 #t pop=none jul-cc-pvdz guess=read upbe1pbe empiricaldispersion=gd3bj
 ---------------------------------------------------------------------
 -----------------------------
 theory_abbreviation pbe0_d3bj
 -----------------------------
 Symbolic Z-matrix:
 Charge =  0 Multiplicity = 6

 SCF Done:  E(UPBE1PBE) =  -3033.16240079     A.U. after    1 cycles
 Normal termination of Gaussian 16 at Tue Feb 11 14:00:01 2020.

 -----------------------------------------
 #t pop=none jul-cc-pvdz guess=read ub3lyp
 -----------------------------------------
 -------------------------
 theory_abbreviation b3lyp
 -------------------------
 Symbolic Z-matrix:
 Charge =  0 Multiplicity = 6

 SCF Done:  E(UB3LYP) =  -3034.34166960     A.U. after   13 cycles
 Normal termination of Gaussian 16 at Tue Feb 11 14:13:44 2020.

 -------------------------------------------------------------------
 #t pop=none jul-cc-pvdz guess=read ub3lyp empiricaldispersion=gd3bj
 -------------------------------------------------------------------
 ------------------------------
 theory_abbreviation b3lyp_d3bj
 ------------------------------
 Symbolic Z-matrix:
 Charge =  0 Multiplicity = 6

 SCF Done:  E(UB3LYP) =  -3034.41103397     A.U. after    1 cycles
 Normal termination of Gaussian 16 at Tue Feb 11 14:14:54 2020.

 ----------------------------------------
 #t pop=none jul-cc-pvdz guess=read ub97d
 ----------------------------------------
 ------------------------
 theory_abbreviation b97d
 ------------------------
 Symbolic Z-matrix:
 Charge =  0 Multiplicity = 6

 SCF Done:  E(UB97D) =  -3034.59401901     A.U. after   15 cycles

 ----------------------------------------------------------------
 #t pop=none jul-cc-pvdz guess=read ub97d empiricaldispersion=gd3
 ----------------------------------------------------------------
 -------------------------
 theory_abbreviation b97d3
 -------------------------
 Symbolic Z-matrix:
 Charge =  0 Multiplicity = 6

 SCF Done:  E(UB97D) =  -3034.59573960     A.U. after    1 cycles
 SCF Done:  E(UBHandHLYP) =  -3033.98338321     A.U. after   18 cycles
 SCF Done:  E(UBHandH) =  -3026.32427249     A.U. after   14 cycles
 SCF Done:  E(ULC-wPBE) =  -3033.46616571     A.U. after   19 cycles
 SCF Done:  E(UB-P86) =  -3034.64487512     A.U. after   16 cycles
 SCF Done:  E(UmPW1LYP) =  -3034.05991211     A.U. after   13 cycles
 SCF Done:  E(UmPW1PBE) =  -3033.89955266     A.U. after   14 cycles
 SCF Done:  E(UmPW3PBE) =  -3033.67240073     A.U. after   13 cycles
 SCF Done:  E(UM11) =  -3033.82328125     A.U. after   16 cycles
 SCF Done:  E(UN12SX) =  -3033.26389830     A.U. after   17 cycles
 SCF Done:  E(UMN12SX) =  -3033.66555359     A.U. after   16 cycles
 SCF Done:  E(UB1B95) =  -3034.39548898     A.U. after   14 cycles
 Normal termination of Gaussian 16 at Tue Feb 11 22:31:52 2020.
 SCF Done:  E(UB3PW91) =  -3033.98829755     A.U. after   13 cycles
 Normal termination of Gaussian 16 at Tue Feb 11 22:45:30 2020.
 SCF Done:  E(UM06L) =  -3034.21065958     A.U. after   17 cycles
 Normal termination of Gaussian 16 at Tue Feb 11 23:05:11 2020.
 Gaussian 16:  ES64L-G16RevA.03 25-Dec-2016

                         Standard orientation:
 ---------------------------------------------------------------------
 Center     Atomic      Atomic             Coordinates (Angstroms)
 Number     Number       Type             X           Y           Z
 ---------------------------------------------------------------------
      1          8           0       -0.283876   -0.218587   -0.747266
      2          6           0       -1.110931   -1.165480   -0.623787
      3          6           0       -3.162348   -0.022640    0.233884
      4          6           0       -2.437743    1.033004   -0.202435
      5          6           0       -2.532954    1.524330   -1.617499
      6         26           0        1.467321    0.103016    0.047817
      7         17           0        2.104068    1.990860   -0.837030
      8          6           0       -1.574273    1.873905    0.689614
      9         17           0        2.547730   -1.688880   -0.608296
     10         17           0        1.257949    0.165335    2.234650
     11          1           0       -3.832909   -0.496244   -0.481803
     12          1           0       -2.135181    2.773811    0.978622
     13          1           0       -1.261123    1.369594    1.603835
     14          1           0       -0.681741    2.220428    0.159158
     15          1           0       -2.835889    2.579259   -1.616272
     16          1           0       -1.551008    1.482844   -2.104448
     17          1           0       -3.261713    0.966031   -2.211363
     18          6           0       -3.364445   -0.430129    1.668473
     19          1           0       -4.262349    0.059684    2.069247
     20          1           0       -3.526144   -1.508282    1.766231
     21          1           0       -2.528551   -0.151380    2.314819
     22          6           0       -1.017733   -2.095460    0.546815
     23          1           0       -1.907454   -2.715148    0.658269
     24          1           0       -0.161513   -2.753356    0.333183
     25          1           0       -0.792628   -1.564631    1.472028
     26          6           0       -1.780850   -1.666671   -1.870520
     27          1           0       -1.061250   -2.361806   -2.328120
     28          1           0       -2.698743   -2.217462   -1.661407
     29          1           0       -1.959161   -0.862568   -2.582874
 ---------------------------------------------------------------------

 SCF Done:  E(UB97D3) =  -3034.63087698     A.U. after   17 cycles
 Normal termination of Gaussian 16 at Tue Feb 11 23:18:44 2020.
