 Gaussian 16, Revision A.03,

 --------------------------------
 #t pop=none jul-cc-pvdz upbe1pbe
 --------------------------------
 ------------------------
 theory_abbreviation pbe0
 ------------------------
 Symbolic Z-matrix:
 Charge =  0 Multiplicity = 6

 SCF Done:  E(UPBE1PBE) =  -3033.11431580     A.U. after   21 cycles
 Normal termination of Gaussian 16 at Tue Feb 11 13:59:19 2020.

 ---------------------------------------------------------------------
 #t pop=none jul-cc-pvdz guess=read upbe1pbe empiricaldispersion=gd3bj
 ---------------------------------------------------------------------
 -----------------------------
 theory_abbreviation pbe0_d3bj
 -----------------------------
 Symbolic Z-matrix:
 Charge =  0 Multiplicity = 6

 SCF Done:  E(UPBE1PBE) =  -3033.15018393     A.U. after    1 cycles
 Normal termination of Gaussian 16 at Tue Feb 11 14:00:29 2020.

 -----------------------------------------
 #t pop=none jul-cc-pvdz guess=read ub3lyp
 -----------------------------------------
 -------------------------
 theory_abbreviation b3lyp
 -------------------------
 Symbolic Z-matrix:
 Charge =  0 Multiplicity = 6

 SCF Done:  E(UB3LYP) =  -3034.32810329     A.U. after   13 cycles
 Normal termination of Gaussian 16 at Tue Feb 11 14:14:18 2020.

 -------------------------------------------------------------------
 #t pop=none jul-cc-pvdz guess=read ub3lyp empiricaldispersion=gd3bj
 -------------------------------------------------------------------
 ------------------------------
 theory_abbreviation b3lyp_d3bj
 ------------------------------
 Symbolic Z-matrix:
 Charge =  0 Multiplicity = 6

 SCF Done:  E(UB3LYP) =  -3034.39499885     A.U. after    1 cycles
 Normal termination of Gaussian 16 at Tue Feb 11 14:15:29 2020.

 ----------------------------------------
 #t pop=none jul-cc-pvdz guess=read ub97d
 ----------------------------------------
 ------------------------
 theory_abbreviation b97d
 ------------------------
 Symbolic Z-matrix:
 Charge =  0 Multiplicity = 6

 SCF Done:  E(UB97D) =  -3034.58062313     A.U. after   17 cycles

 ----------------------------------------------------------------
 #t pop=none jul-cc-pvdz guess=read ub97d empiricaldispersion=gd3
 ----------------------------------------------------------------
 -------------------------
 theory_abbreviation b97d3
 -------------------------
 Symbolic Z-matrix:
 Charge =  0 Multiplicity = 6

 SCF Done:  E(UB97D) =  -3034.58076844     A.U. after    1 cycles
 SCF Done:  E(UBHandHLYP) =  -3033.96771315     A.U. after   17 cycles
 SCF Done:  E(UBHandH) =  -3026.31392825     A.U. after   16 cycles
 SCF Done:  E(ULC-wPBE) =  -3033.45173695     A.U. after   18 cycles
 SCF Done:  E(UB-P86) =  -3034.63293501     A.U. after   17 cycles
 SCF Done:  E(UmPW1LYP) =  -3034.04571643     A.U. after   15 cycles
 SCF Done:  E(UmPW1PBE) =  -3033.88887116     A.U. after   16 cycles
 SCF Done:  E(UmPW3PBE) =  -3033.66165268     A.U. after   15 cycles
 SCF Done:  E(UM11) =  -3033.80928497     A.U. after   19 cycles
 SCF Done:  E(UN12SX) =  -3033.25390768     A.U. after   17 cycles
 SCF Done:  E(UMN12SX) =  -3033.64943633     A.U. after   16 cycles
 SCF Done:  E(UB1B95) =  -3034.38150214     A.U. after   16 cycles
 Normal termination of Gaussian 16 at Tue Feb 11 23:06:08 2020.
 SCF Done:  E(UB3PW91) =  -3033.97720844     A.U. after   15 cycles
 Normal termination of Gaussian 16 at Tue Feb 11 23:21:22 2020.
 SCF Done:  E(UM06L) =  -3034.19357050     A.U. after   16 cycles
 Normal termination of Gaussian 16 at Tue Feb 11 23:38:52 2020.
 Gaussian 16:  ES64L-G16RevA.03 25-Dec-2016

                         Standard orientation:
 ---------------------------------------------------------------------
 Center     Atomic      Atomic             Coordinates (Angstroms)
 Number     Number       Type             X           Y           Z
 ---------------------------------------------------------------------
      1          8           0       -0.316784   -0.129602   -0.435326
      2          6           0       -1.199079   -1.083302   -0.231922
      3          6           0       -2.592817   -0.319272    0.809115
      4          6           0       -3.020970    0.689053   -0.061617
      5          6           0       -4.125116    0.468393   -1.036281
      6         26           0        1.517106    0.173777   -0.094136
      7         17           0        1.838175    2.166208   -0.961372
      8          6           0       -2.293731    1.969806   -0.121600
      9         17           0        2.532154   -1.503030   -1.091820
     10         17           0        1.820779    0.153097    2.094317
     11          1           0       -3.267373   -1.174522    0.861789
     12          1           0       -2.751039    2.698706   -0.793016
     13          1           0       -2.128663    2.409848    0.866719
     14          1           0       -1.280411    1.709996   -0.495310
     15          1           0       -4.955979    1.134002   -0.758572
     16          1           0       -3.826832    0.765530   -2.049358
     17          1           0       -4.494983   -0.558233   -1.043212
     18          6           0       -1.949795    0.073429    2.133681
     19          1           0       -2.583842    0.795618    2.659586
     20          1           0       -1.836849   -0.797407    2.780781
     21          1           0       -0.962350    0.518906    1.996313
     22          6           0       -0.746771   -2.204388    0.704094
     23          1           0       -1.565368   -2.876159    0.974782
     24          1           0        0.004866   -2.775427    0.145355
     25          1           0       -0.262767   -1.817586    1.600243
     26          6           0       -1.812937   -1.613808   -1.521646
     27          1           0       -1.042781   -2.220468   -2.010959
     28          1           0       -2.686547   -2.247076   -1.342293
     29          1           0       -2.071099   -0.803247   -2.204789
 ---------------------------------------------------------------------

 SCF Done:  E(UB97D3) =  -3034.61498890     A.U. after   16 cycles
 Normal termination of Gaussian 16 at Tue Feb 11 23:51:28 2020.
