 Gaussian 16, Revision A.03,

 --------------------------------
 #t pop=none jul-cc-pvdz upbe1pbe
 --------------------------------
 ------------------------
 theory_abbreviation pbe0
 ------------------------
 Symbolic Z-matrix:
 Charge =  0 Multiplicity = 6

 SCF Done:  E(UPBE1PBE) =  -3033.11281441     A.U. after   21 cycles
 Normal termination of Gaussian 16 at Tue Feb 11 13:58:33 2020.

 ---------------------------------------------------------------------
 #t pop=none jul-cc-pvdz guess=read upbe1pbe empiricaldispersion=gd3bj
 ---------------------------------------------------------------------
 -----------------------------
 theory_abbreviation pbe0_d3bj
 -----------------------------
 Symbolic Z-matrix:
 Charge =  0 Multiplicity = 6

 SCF Done:  E(UPBE1PBE) =  -3033.14847182     A.U. after    1 cycles
 Normal termination of Gaussian 16 at Tue Feb 11 13:59:42 2020.

 -----------------------------------------
 #t pop=none jul-cc-pvdz guess=read ub3lyp
 -----------------------------------------
 -------------------------
 theory_abbreviation b3lyp
 -------------------------
 Symbolic Z-matrix:
 Charge =  0 Multiplicity = 6

 SCF Done:  E(UB3LYP) =  -3034.32660420     A.U. after   14 cycles
 Normal termination of Gaussian 16 at Tue Feb 11 14:14:15 2020.

 -------------------------------------------------------------------
 #t pop=none jul-cc-pvdz guess=read ub3lyp empiricaldispersion=gd3bj
 -------------------------------------------------------------------
 ------------------------------
 theory_abbreviation b3lyp_d3bj
 ------------------------------
 Symbolic Z-matrix:
 Charge =  0 Multiplicity = 6

 SCF Done:  E(UB3LYP) =  -3034.39313187     A.U. after    1 cycles
 Normal termination of Gaussian 16 at Tue Feb 11 14:15:24 2020.

 ----------------------------------------
 #t pop=none jul-cc-pvdz guess=read ub97d
 ----------------------------------------
 ------------------------
 theory_abbreviation b97d
 ------------------------
 Symbolic Z-matrix:
 Charge =  0 Multiplicity = 6

 SCF Done:  E(UB97D) =  -3034.57926271     A.U. after   16 cycles

 ----------------------------------------------------------------
 #t pop=none jul-cc-pvdz guess=read ub97d empiricaldispersion=gd3
 ----------------------------------------------------------------
 -------------------------
 theory_abbreviation b97d3
 -------------------------
 Symbolic Z-matrix:
 Charge =  0 Multiplicity = 6

 SCF Done:  E(UB97D) =  -3034.57922357     A.U. after    1 cycles
 SCF Done:  E(UBHandHLYP) =  -3033.96598005     A.U. after   17 cycles
 SCF Done:  E(UBHandH) =  -3026.31184644     A.U. after   16 cycles
 SCF Done:  E(ULC-wPBE) =  -3033.44999833     A.U. after   18 cycles
 SCF Done:  E(UB-P86) =  -3034.63163041     A.U. after   18 cycles
 SCF Done:  E(UmPW1LYP) =  -3034.04411908     A.U. after   15 cycles
 SCF Done:  E(UmPW1PBE) =  -3033.88740484     A.U. after   15 cycles
 SCF Done:  E(UmPW3PBE) =  -3033.66021809     A.U. after   15 cycles
 SCF Done:  E(UM11) =  -3033.80701884     A.U. after   19 cycles
 SCF Done:  E(UN12SX) =  -3033.25247509     A.U. after   17 cycles
 SCF Done:  E(UMN12SX) =  -3033.64777187     A.U. after   16 cycles
 SCF Done:  E(UB1B95) =  -3034.37968844     A.U. after   16 cycles
 Normal termination of Gaussian 16 at Tue Feb 11 22:55:56 2020.
 SCF Done:  E(UB3PW91) =  -3033.97581074     A.U. after   15 cycles
 Normal termination of Gaussian 16 at Tue Feb 11 23:11:05 2020.
 SCF Done:  E(UM06L) =  -3034.19211541     A.U. after   16 cycles
 Normal termination of Gaussian 16 at Tue Feb 11 23:28:31 2020.
 Gaussian 16:  ES64L-G16RevA.03 25-Dec-2016

                         Standard orientation:
 ---------------------------------------------------------------------
 Center     Atomic      Atomic             Coordinates (Angstroms)
 Number     Number       Type             X           Y           Z
 ---------------------------------------------------------------------
      1          8           0       -0.294273   -0.122057   -0.419884
      2          6           0       -1.204575   -1.051128   -0.172991
      3          6           0       -2.551968   -0.276322    0.830359
      4          6           0       -3.120307    0.647885   -0.068925
      5          6           0       -4.293388    0.305628   -0.914874
      6         26           0        1.541573    0.168566   -0.103347
      7         17           0        1.893995    2.130551   -1.027058
      8          6           0       -2.440350    1.936220   -0.293658
      9         17           0        2.527563   -1.549365   -1.063273
     10         17           0        1.867799    0.200495    2.082460
     11          1           0       -3.189015   -1.144044    1.007962
     12          1           0       -2.936018    2.573467   -1.027845
     13          1           0       -2.273362    2.487293    0.638216
     14          1           0       -1.419706    1.669883   -0.647250
     15          1           0       -5.123613    0.965881   -0.621276
     16          1           0       -4.096493    0.523526   -1.972038
     17          1           0       -4.618512   -0.729822   -0.800979
     18          6           0       -1.872646    0.268228    2.086060
     19          1           0       -2.526470    0.989490    2.587692
     20          1           0       -1.669028   -0.538428    2.791118
     21          1           0       -0.924120    0.756826    1.857573
     22          6           0       -0.739584   -2.158652    0.778154
     23          1           0       -1.554792   -2.827064    1.067265
     24          1           0        0.009919   -2.737061    0.225027
     25          1           0       -0.250791   -1.754588    1.664444
     26          6           0       -1.818641   -1.612841   -1.452283
     27          1           0       -1.050061   -2.225545   -1.935365
     28          1           0       -2.690776   -2.244007   -1.256979
     29          1           0       -2.084195   -0.814753   -2.148713
 ---------------------------------------------------------------------

 SCF Done:  E(UB97D3) =  -3034.61347637     A.U. after   16 cycles
 Normal termination of Gaussian 16 at Tue Feb 11 23:41:02 2020.
