 Gaussian 16, Revision A.03,

 --------------------------------
 #t pop=none jul-cc-pvdz upbe1pbe
 --------------------------------
 ------------------------
 theory_abbreviation pbe0
 ------------------------
 Symbolic Z-matrix:
 Charge =  0 Multiplicity = 6

 SCF Done:  E(UPBE1PBE) =  -3033.12501782     A.U. after   20 cycles
 Normal termination of Gaussian 16 at Tue Feb 11 13:58:45 2020.

 ---------------------------------------------------------------------
 #t pop=none jul-cc-pvdz guess=read upbe1pbe empiricaldispersion=gd3bj
 ---------------------------------------------------------------------
 -----------------------------
 theory_abbreviation pbe0_d3bj
 -----------------------------
 Symbolic Z-matrix:
 Charge =  0 Multiplicity = 6

 SCF Done:  E(UPBE1PBE) =  -3033.16222664     A.U. after    1 cycles
 Normal termination of Gaussian 16 at Tue Feb 11 13:59:55 2020.

 -----------------------------------------
 #t pop=none jul-cc-pvdz guess=read ub3lyp
 -----------------------------------------
 -------------------------
 theory_abbreviation b3lyp
 -------------------------
 Symbolic Z-matrix:
 Charge =  0 Multiplicity = 6

 SCF Done:  E(UB3LYP) =  -3034.34186148     A.U. after   13 cycles
 Normal termination of Gaussian 16 at Tue Feb 11 14:13:34 2020.

 -------------------------------------------------------------------
 #t pop=none jul-cc-pvdz guess=read ub3lyp empiricaldispersion=gd3bj
 -------------------------------------------------------------------
 ------------------------------
 theory_abbreviation b3lyp_d3bj
 ------------------------------
 Symbolic Z-matrix:
 Charge =  0 Multiplicity = 6

 SCF Done:  E(UB3LYP) =  -3034.41098049     A.U. after    1 cycles
 Normal termination of Gaussian 16 at Tue Feb 11 14:14:44 2020.

 ----------------------------------------
 #t pop=none jul-cc-pvdz guess=read ub97d
 ----------------------------------------
 ------------------------
 theory_abbreviation b97d
 ------------------------
 Symbolic Z-matrix:
 Charge =  0 Multiplicity = 6

 SCF Done:  E(UB97D) =  -3034.59344289     A.U. after   15 cycles

 ----------------------------------------------------------------
 #t pop=none jul-cc-pvdz guess=read ub97d empiricaldispersion=gd3
 ----------------------------------------------------------------
 -------------------------
 theory_abbreviation b97d3
 -------------------------
 Symbolic Z-matrix:
 Charge =  0 Multiplicity = 6

 SCF Done:  E(UB97D) =  -3034.59561496     A.U. after    1 cycles
 SCF Done:  E(UBHandHLYP) =  -3033.98385428     A.U. after   17 cycles
 SCF Done:  E(UBHandH) =  -3026.32397830     A.U. after   14 cycles
 SCF Done:  E(ULC-wPBE) =  -3033.46660919     A.U. after   17 cycles
 SCF Done:  E(UB-P86) =  -3034.64448258     A.U. after   16 cycles
 SCF Done:  E(UmPW1LYP) =  -3034.06013923     A.U. after   14 cycles
 SCF Done:  E(UmPW1PBE) =  -3033.89951409     A.U. after   14 cycles
 SCF Done:  E(UmPW3PBE) =  -3033.67234893     A.U. after   13 cycles
 SCF Done:  E(UM11) =  -3033.82385601     A.U. after   17 cycles
 SCF Done:  E(UN12SX) =  -3033.26375519     A.U. after   17 cycles
 SCF Done:  E(UMN12SX) =  -3033.66605709     A.U. after   16 cycles
 SCF Done:  E(UB1B95) =  -3034.39581900     A.U. after   14 cycles
 Normal termination of Gaussian 16 at Tue Feb 11 22:30:19 2020.
 SCF Done:  E(UB3PW91) =  -3033.98831049     A.U. after   15 cycles
 Normal termination of Gaussian 16 at Tue Feb 11 22:45:47 2020.
 SCF Done:  E(UM06L) =  -3034.21103015     A.U. after   17 cycles
 Normal termination of Gaussian 16 at Tue Feb 11 23:06:13 2020.
 Gaussian 16:  ES64L-G16RevA.03 25-Dec-2016

                         Standard orientation:
 ---------------------------------------------------------------------
 Center     Atomic      Atomic             Coordinates (Angstroms)
 Number     Number       Type             X           Y           Z
 ---------------------------------------------------------------------
      1          8           0       -0.299644   -0.216166   -0.707005
      2          6           0       -1.089307   -1.189989   -0.598398
      3          6           0       -3.241697    0.047460    0.173568
      4          6           0       -2.410330    1.034301   -0.226070
      5          6           0       -2.419106    1.539920   -1.640940
      6         26           0        1.473071    0.103048    0.057445
      7         17           0        2.103799    1.978128   -0.854025
      8          6           0       -1.557211    1.832857    0.717698
      9         17           0        2.513647   -1.704498   -0.621952
     10         17           0        1.315661    0.164677    2.245060
     11          1           0       -3.894936   -0.391292   -0.580161
     12          1           0       -2.117837    2.723495    1.034071
     13          1           0       -1.268112    1.289279    1.618013
     14          1           0       -0.650504    2.193965    0.223798
     15          1           0       -2.700223    2.601197   -1.643930
     16          1           0       -1.417848    1.481010   -2.082728
     17          1           0       -3.131845    1.004273   -2.274574
     18          6           0       -3.522617   -0.373599    1.589386
     19          1           0       -4.440723    0.111110    1.948955
     20          1           0       -3.690004   -1.453533    1.667584
     21          1           0       -2.722011   -0.102430    2.282170
     22          6           0       -1.041662   -2.072920    0.608220
     23          1           0       -1.939482   -2.682484    0.711881
     24          1           0       -0.182828   -2.744473    0.455989
     25          1           0       -0.848015   -1.502535    1.517204
     26          6           0       -1.744434   -1.709010   -1.841983
     27          1           0       -1.029436   -2.425496   -2.274135
     28          1           0       -2.673226   -2.241540   -1.633070
     29          1           0       -1.900303   -0.915771   -2.571884
 ---------------------------------------------------------------------

 SCF Done:  E(UB97D3) =  -3034.63065708     A.U. after   17 cycles
 Normal termination of Gaussian 16 at Tue Feb 11 23:19:42 2020.
