 Gaussian 16, Revision A.03,

 --------------------------------
 #t pop=none jul-cc-pvdz upbe1pbe
 --------------------------------
 ------------------------
 theory_abbreviation pbe0
 ------------------------
 Symbolic Z-matrix:
 Charge =  0 Multiplicity = 6

 SCF Done:  E(UPBE1PBE) =  -3033.10922609     A.U. after   21 cycles
 Normal termination of Gaussian 16 at Tue Feb 11 13:57:19 2020.

 ---------------------------------------------------------------------
 #t pop=none jul-cc-pvdz guess=read upbe1pbe empiricaldispersion=gd3bj
 ---------------------------------------------------------------------
 -----------------------------
 theory_abbreviation pbe0_d3bj
 -----------------------------
 Symbolic Z-matrix:
 Charge =  0 Multiplicity = 6

 SCF Done:  E(UPBE1PBE) =  -3033.14633533     A.U. after    1 cycles
 Normal termination of Gaussian 16 at Tue Feb 11 13:58:30 2020.

 -----------------------------------------
 #t pop=none jul-cc-pvdz guess=read ub3lyp
 -----------------------------------------
 -------------------------
 theory_abbreviation b3lyp
 -------------------------
 Symbolic Z-matrix:
 Charge =  0 Multiplicity = 6

 SCF Done:  E(UB3LYP) =  -3034.32180788     A.U. after   13 cycles
 Normal termination of Gaussian 16 at Tue Feb 11 14:12:26 2020.

 -------------------------------------------------------------------
 #t pop=none jul-cc-pvdz guess=read ub3lyp empiricaldispersion=gd3bj
 -------------------------------------------------------------------
 ------------------------------
 theory_abbreviation b3lyp_d3bj
 ------------------------------
 Symbolic Z-matrix:
 Charge =  0 Multiplicity = 6

 SCF Done:  E(UB3LYP) =  -3034.39091129     A.U. after    1 cycles
 Normal termination of Gaussian 16 at Tue Feb 11 14:13:36 2020.

 ----------------------------------------
 #t pop=none jul-cc-pvdz guess=read ub97d
 ----------------------------------------
 ------------------------
 theory_abbreviation b97d
 ------------------------
 Symbolic Z-matrix:
 Charge =  0 Multiplicity = 6

 SCF Done:  E(UB97D) =  -3034.57129983     A.U. after   15 cycles

 ----------------------------------------------------------------
 #t pop=none jul-cc-pvdz guess=read ub97d empiricaldispersion=gd3
 ----------------------------------------------------------------
 -------------------------
 theory_abbreviation b97d3
 -------------------------
 Symbolic Z-matrix:
 Charge =  0 Multiplicity = 6

 SCF Done:  E(UB97D) =  -3034.57250994     A.U. after    3 cycles
 SCF Done:  E(UBHandHLYP) =  -3033.96693486     A.U. after   15 cycles
 SCF Done:  E(UBHandH) =  -3026.31408257     A.U. after   14 cycles
 SCF Done:  E(ULC-wPBE) =  -3033.45468085     A.U. after   16 cycles
 SCF Done:  E(UB-P86) =  -3034.62713192     A.U. after   16 cycles
 SCF Done:  E(UmPW1LYP) =  -3034.04051806     A.U. after   14 cycles
 SCF Done:  E(UmPW1PBE) =  -3033.88359192     A.U. after   14 cycles
 SCF Done:  E(UmPW3PBE) =  -3033.65554664     A.U. after   12 cycles
 SCF Done:  E(UM11) =  -3033.80550903     A.U. after   16 cycles
 SCF Done:  E(UN12SX) =  -3033.24930979     A.U. after   15 cycles
 SCF Done:  E(UMN12SX) =  -3033.64600628     A.U. after   16 cycles
 SCF Done:  E(UB1B95) =  -3034.37480821     A.U. after   14 cycles
 Normal termination of Gaussian 16 at Tue Feb 11 22:37:15 2020.
 SCF Done:  E(UB3PW91) =  -3033.97085534     A.U. after   14 cycles
 Normal termination of Gaussian 16 at Tue Feb 11 22:53:28 2020.
 SCF Done:  E(UM06L) =  -3034.18662066     A.U. after   18 cycles
 Normal termination of Gaussian 16 at Tue Feb 11 23:13:24 2020.
 Gaussian 16:  ES64L-G16RevA.03 25-Dec-2016

                         Standard orientation:
 ---------------------------------------------------------------------
 Center     Atomic      Atomic             Coordinates (Angstroms)
 Number     Number       Type             X           Y           Z
 ---------------------------------------------------------------------
      1          8           0       -0.317691   -0.330970   -0.661548
      2          6           0       -1.433112   -1.201011   -0.456227
      3          6           0       -2.683546   -0.190635   -0.084664
      4          6           0       -2.028438    1.147287   -0.239565
      5          6           0       -1.965059    1.804970   -1.555831
      6         26           0        1.360024    0.029155    0.015720
      7         17           0        1.678516    2.092522   -0.771890
      8          6           0       -1.567458    1.905660    0.932658
      9         17           0        2.768916   -1.513037   -0.649599
     10         17           0        1.163485    0.097660    2.243818
     11          1           0       -3.424926   -0.297201   -0.883925
     12          1           0       -2.471616    2.278040    1.443557
     13          1           0       -1.049322    1.263821    1.654328
     14          1           0       -0.929048    2.747175    0.660996
     15          1           0       -2.605737    2.701364   -1.510492
     16          1           0       -0.940324    2.164624   -1.721092
     17          1           0       -2.290304    1.166589   -2.376699
     18          6           0       -3.358336   -0.431219    1.266000
     19          1           0       -4.163345    0.292730    1.435853
     20          1           0       -3.806603   -1.427932    1.279314
     21          1           0       -2.658615   -0.369339    2.102206
     22          6           0       -1.134034   -2.206188    0.647611
     23          1           0       -1.965965   -2.899927    0.804045
     24          1           0       -0.258506   -2.787677    0.337303
     25          1           0       -0.884789   -1.716822    1.590571
     26          6           0       -1.728372   -1.908309   -1.775318
     27          1           0       -0.858704   -2.511583   -2.054108
     28          1           0       -2.601939   -2.564436   -1.689006
     29          1           0       -1.904819   -1.184483   -2.576735
 ---------------------------------------------------------------------

 SCF Done:  E(UB97D3) =  -3034.60761835     A.U. after   15 cycles
 Normal termination of Gaussian 16 at Tue Feb 11 23:25:28 2020.
