 Gaussian 16, Revision A.03,

 --------------------------------
 #t pop=none jul-cc-pvdz upbe1pbe
 --------------------------------
 ------------------------
 theory_abbreviation pbe0
 ------------------------
 Symbolic Z-matrix:
 Charge =  0 Multiplicity = 6

 SCF Done:  E(UPBE1PBE) =  -3033.10970454     A.U. after   21 cycles
 Normal termination of Gaussian 16 at Tue Feb 11 13:57:07 2020.

 ---------------------------------------------------------------------
 #t pop=none jul-cc-pvdz guess=read upbe1pbe empiricaldispersion=gd3bj
 ---------------------------------------------------------------------
 -----------------------------
 theory_abbreviation pbe0_d3bj
 -----------------------------
 Symbolic Z-matrix:
 Charge =  0 Multiplicity = 6

 SCF Done:  E(UPBE1PBE) =  -3033.14654509     A.U. after    1 cycles
 Normal termination of Gaussian 16 at Tue Feb 11 13:58:18 2020.

 -----------------------------------------
 #t pop=none jul-cc-pvdz guess=read ub3lyp
 -----------------------------------------
 -------------------------
 theory_abbreviation b3lyp
 -------------------------
 Symbolic Z-matrix:
 Charge =  0 Multiplicity = 6

 SCF Done:  E(UB3LYP) =  -3034.32159330     A.U. after   13 cycles
 Normal termination of Gaussian 16 at Tue Feb 11 14:12:08 2020.

 -------------------------------------------------------------------
 #t pop=none jul-cc-pvdz guess=read ub3lyp empiricaldispersion=gd3bj
 -------------------------------------------------------------------
 ------------------------------
 theory_abbreviation b3lyp_d3bj
 ------------------------------
 Symbolic Z-matrix:
 Charge =  0 Multiplicity = 6

 SCF Done:  E(UB3LYP) =  -3034.39019290     A.U. after    1 cycles
 Normal termination of Gaussian 16 at Tue Feb 11 14:13:18 2020.

 ----------------------------------------
 #t pop=none jul-cc-pvdz guess=read ub97d
 ----------------------------------------
 ------------------------
 theory_abbreviation b97d
 ------------------------
 Symbolic Z-matrix:
 Charge =  0 Multiplicity = 6

 SCF Done:  E(UB97D) =  -3034.57119950     A.U. after   16 cycles

 ----------------------------------------------------------------
 #t pop=none jul-cc-pvdz guess=read ub97d empiricaldispersion=gd3
 ----------------------------------------------------------------
 -------------------------
 theory_abbreviation b97d3
 -------------------------
 Symbolic Z-matrix:
 Charge =  0 Multiplicity = 6

 SCF Done:  E(UB97D) =  -3034.57187118     A.U. after    1 cycles
 SCF Done:  E(UBHandHLYP) =  -3033.96620941     A.U. after   16 cycles
 SCF Done:  E(UBHandH) =  -3026.31483289     A.U. after   14 cycles
 SCF Done:  E(ULC-wPBE) =  -3033.45373846     A.U. after   16 cycles
 SCF Done:  E(UB-P86) =  -3034.62733747     A.U. after   17 cycles
 SCF Done:  E(UmPW1LYP) =  -3034.04001909     A.U. after   13 cycles
 SCF Done:  E(UmPW1PBE) =  -3033.88412642     A.U. after   13 cycles
 SCF Done:  E(UmPW3PBE) =  -3033.65611422     A.U. after   13 cycles
 SCF Done:  E(UM11) =  -3033.80505048     A.U. after   16 cycles
 SCF Done:  E(UN12SX) =  -3033.24938522     A.U. after   15 cycles
 SCF Done:  E(UMN12SX) =  -3033.64543534     A.U. after   16 cycles
 SCF Done:  E(UB1B95) =  -3034.37544343     A.U. after   14 cycles
 Normal termination of Gaussian 16 at Tue Feb 11 22:28:05 2020.
 SCF Done:  E(UB3PW91) =  -3033.97140270     A.U. after   13 cycles
 Normal termination of Gaussian 16 at Tue Feb 11 22:41:27 2020.
 SCF Done:  E(UM06L) =  -3034.18707961     A.U. after   16 cycles
 Normal termination of Gaussian 16 at Tue Feb 11 23:00:49 2020.
 Gaussian 16:  ES64L-G16RevA.03 25-Dec-2016

                         Standard orientation:
 ---------------------------------------------------------------------
 Center     Atomic      Atomic             Coordinates (Angstroms)
 Number     Number       Type             X           Y           Z
 ---------------------------------------------------------------------
      1          8           0        0.276667    0.274147   -0.639186
      2          6           0        1.370143    1.094532   -0.333712
      3          6           0        2.684201    0.118053   -0.539238
      4          6           0        2.165892   -1.213709   -0.170525
      5          6           0        1.655241   -2.102948   -1.230915
      6         26           0       -1.424524   -0.000507   -0.018349
      7         17           0       -2.302821   -1.454531   -1.424196
      8          6           0        2.100195   -1.682648    1.200559
      9         17           0       -2.453134    1.931540    0.203796
     10         17           0       -1.101932   -1.007110    1.994927
     11          1           0        2.856436    0.121424   -1.619990
     12          1           0        2.768951   -1.184175    1.900413
     13          1           0        1.041099   -1.446120    1.510279
     14          1           0        2.155938   -2.772820    1.276130
     15          1           0        2.514195   -2.721498   -1.549287
     16          1           0        0.877450   -2.778805   -0.864480
     17          1           0        1.297138   -1.540755   -2.093587
     18          6           0        3.942578    0.592683    0.190846
     19          1           0        4.794907   -0.057758   -0.032526
     20          1           0        4.197658    1.600529   -0.148749
     21          1           0        3.813249    0.629596    1.274296
     22          6           0        1.295995    1.635422    1.095464
     23          1           0        2.137831    2.294111    1.325537
     24          1           0        0.374483    2.220154    1.180536
     25          1           0        1.244600    0.841338    1.843101
     26          6           0        1.449967    2.235962   -1.344952
     27          1           0        0.561084    2.863414   -1.221062
     28          1           0        2.339693    2.858038   -1.197382
     29          1           0        1.448368    1.840972   -2.364794
 ---------------------------------------------------------------------

 SCF Done:  E(UB97D3) =  -3034.60759553     A.U. after   16 cycles
 Normal termination of Gaussian 16 at Tue Feb 11 23:13:34 2020.
