 Gaussian 16, Revision A.03,

 --------------------------------
 #t pop=none jul-cc-pvdz upbe1pbe
 --------------------------------
 ------------------------
 theory_abbreviation pbe0
 ------------------------
 Symbolic Z-matrix:
 Charge =  0 Multiplicity = 6

 SCF Done:  E(UPBE1PBE) =  -3033.12027450     A.U. after   21 cycles
 Normal termination of Gaussian 16 at Tue Feb 11 13:58:20 2020.

 ---------------------------------------------------------------------
 #t pop=none jul-cc-pvdz guess=read upbe1pbe empiricaldispersion=gd3bj
 ---------------------------------------------------------------------
 -----------------------------
 theory_abbreviation pbe0_d3bj
 -----------------------------
 Symbolic Z-matrix:
 Charge =  0 Multiplicity = 6

 SCF Done:  E(UPBE1PBE) =  -3033.15654208     A.U. after    1 cycles
 Normal termination of Gaussian 16 at Tue Feb 11 13:59:35 2020.

 -----------------------------------------
 #t pop=none jul-cc-pvdz guess=read ub3lyp
 -----------------------------------------
 -------------------------
 theory_abbreviation b3lyp
 -------------------------
 Symbolic Z-matrix:
 Charge =  0 Multiplicity = 6

 SCF Done:  E(UB3LYP) =  -3034.33649076     A.U. after   15 cycles
 Normal termination of Gaussian 16 at Tue Feb 11 14:14:44 2020.

 -------------------------------------------------------------------
 #t pop=none jul-cc-pvdz guess=read ub3lyp empiricaldispersion=gd3bj
 -------------------------------------------------------------------
 ------------------------------
 theory_abbreviation b3lyp_d3bj
 ------------------------------
 Symbolic Z-matrix:
 Charge =  0 Multiplicity = 6

 SCF Done:  E(UB3LYP) =  -3034.40411231     A.U. after    1 cycles
 Normal termination of Gaussian 16 at Tue Feb 11 14:15:55 2020.

 ----------------------------------------
 #t pop=none jul-cc-pvdz guess=read ub97d
 ----------------------------------------
 ------------------------
 theory_abbreviation b97d
 ------------------------
 Symbolic Z-matrix:
 Charge =  0 Multiplicity = 6

 SCF Done:  E(UB97D) =  -3034.58913836     A.U. after   17 cycles

 ----------------------------------------------------------------
 #t pop=none jul-cc-pvdz guess=read ub97d empiricaldispersion=gd3
 ----------------------------------------------------------------
 -------------------------
 theory_abbreviation b97d3
 -------------------------
 Symbolic Z-matrix:
 Charge =  0 Multiplicity = 6

 SCF Done:  E(UB97D) =  -3034.59027580     A.U. after    1 cycles
 SCF Done:  E(UBHandHLYP) =  -3033.97540706     A.U. after   17 cycles
 SCF Done:  E(UBHandH) =  -3026.31716901     A.U. after   16 cycles
 SCF Done:  E(ULC-wPBE) =  -3033.45761763     A.U. after   19 cycles
 SCF Done:  E(UB-P86) =  -3034.64022662     A.U. after   17 cycles
 SCF Done:  E(UmPW1LYP) =  -3034.05412551     A.U. after   16 cycles
 SCF Done:  E(UmPW1PBE) =  -3033.89497518     A.U. after   16 cycles
 SCF Done:  E(UmPW3PBE) =  -3033.66805793     A.U. after   13 cycles
 SCF Done:  E(UM11) =  -3033.81580852     A.U. after   19 cycles
 SCF Done:  E(UN12SX) =  -3033.25925232     A.U. after   15 cycles
 SCF Done:  E(UMN12SX) =  -3033.65700525     A.U. after   17 cycles
 SCF Done:  E(UB1B95) =  -3034.38886793     A.U. after   15 cycles
 Normal termination of Gaussian 16 at Tue Feb 11 22:47:19 2020.
 SCF Done:  E(UB3PW91) =  -3033.98395146     A.U. after   15 cycles
 Normal termination of Gaussian 16 at Tue Feb 11 23:04:12 2020.
 SCF Done:  E(UM06L) =  -3034.20118152     A.U. after   16 cycles
 Normal termination of Gaussian 16 at Tue Feb 11 23:21:37 2020.
 Gaussian 16:  ES64L-G16RevA.03 25-Dec-2016

                         Standard orientation:
 ---------------------------------------------------------------------
 Center     Atomic      Atomic             Coordinates (Angstroms)
 Number     Number       Type             X           Y           Z
 ---------------------------------------------------------------------
      1          8           0        0.286835    0.205457   -0.471987
      2          6           0        1.122458    1.137990   -0.187962
      3          6           0        2.669531    0.148112    0.929719
      4          6           0        3.138538   -0.644166   -0.089975
      5          6           0        4.267534   -0.220221   -0.973935
      6         26           0       -1.562433   -0.172875   -0.108765
      7         17           0       -1.902069   -2.061579   -1.154662
      8          6           0        2.474947   -1.943923   -0.399109
      9         17           0       -2.549403    1.603406   -0.940909
     10         17           0       -1.850826   -0.332055    2.066021
     11          1           0        3.247247    1.046364    1.143529
     12          1           0        2.988942   -2.500156   -1.186296
     13          1           0        2.381496   -2.578178    0.489127
     14          1           0        1.444713   -1.731074   -0.732213
     15          1           0        5.104430   -0.917959   -0.829891
     16          1           0        3.995197   -0.287340   -2.034731
     17          1           0        4.624296    0.788662   -0.754215
     18          6           0        1.879062   -0.435999    2.081512
     19          1           0        2.447967   -1.245851    2.553712
     20          1           0        1.680518    0.313842    2.848804
     21          1           0        0.919360   -0.849428    1.763326
     22          6           0        0.744767    2.110530    0.911381
     23          1           0        1.585752    2.724899    1.238524
     24          1           0       -0.013530    2.769577    0.465631
     25          1           0        0.279044    1.610401    1.759601
     26          6           0        1.841333    1.746887   -1.370362
     27          1           0        1.134269    2.453001   -1.825410
     28          1           0        2.737235    2.300240   -1.081189
     29          1           0        2.081692    0.992690   -2.119783
 ---------------------------------------------------------------------

 SCF Done:  E(UB97D3) =  -3034.62541520     A.U. after   15 cycles
 Normal termination of Gaussian 16 at Tue Feb 11 23:33:30 2020.
