 Gaussian 16, Revision A.03,

 --------------------------------
 #t pop=none jul-cc-pvdz upbe1pbe
 --------------------------------
 ------------------------
 theory_abbreviation pbe0
 ------------------------
 Symbolic Z-matrix:
 Charge =  0 Multiplicity = 6

 SCF Done:  E(UPBE1PBE) =  -3033.11638176     A.U. after   20 cycles
 Normal termination of Gaussian 16 at Wed Feb 12 07:00:27 2020.

 ---------------------------------------------------------------------
 #t pop=none jul-cc-pvdz guess=read upbe1pbe empiricaldispersion=gd3bj
 ---------------------------------------------------------------------
 -----------------------------
 theory_abbreviation pbe0_d3bj
 -----------------------------
 Symbolic Z-matrix:
 Charge =  0 Multiplicity = 6

 SCF Done:  E(UPBE1PBE) =  -3033.15413281     A.U. after    1 cycles
 Normal termination of Gaussian 16 at Wed Feb 12 07:01:33 2020.

 -----------------------------------------
 #t pop=none jul-cc-pvdz guess=read ub3lyp
 -----------------------------------------
 -------------------------
 theory_abbreviation b3lyp
 -------------------------
 Symbolic Z-matrix:
 Charge =  0 Multiplicity = 6

 SCF Done:  E(UB3LYP) =  -3034.33157693     A.U. after   13 cycles
 Normal termination of Gaussian 16 at Wed Feb 12 07:14:18 2020.

 -------------------------------------------------------------------
 #t pop=none jul-cc-pvdz guess=read ub3lyp empiricaldispersion=gd3bj
 -------------------------------------------------------------------
 ------------------------------
 theory_abbreviation b3lyp_d3bj
 ------------------------------
 Symbolic Z-matrix:
 Charge =  0 Multiplicity = 6

 SCF Done:  E(UB3LYP) =  -3034.40188730     A.U. after    1 cycles
 Normal termination of Gaussian 16 at Wed Feb 12 07:15:23 2020.

 ----------------------------------------
 #t pop=none jul-cc-pvdz guess=read ub97d
 ----------------------------------------
 ------------------------
 theory_abbreviation b97d
 ------------------------
 Symbolic Z-matrix:
 Charge =  0 Multiplicity = 6

 SCF Done:  E(UB97D) =  -3034.58485838     A.U. after   15 cycles

 ----------------------------------------------------------------
 #t pop=none jul-cc-pvdz guess=read ub97d empiricaldispersion=gd3
 ----------------------------------------------------------------
 -------------------------
 theory_abbreviation b97d3
 -------------------------
 Symbolic Z-matrix:
 Charge =  0 Multiplicity = 6

 SCF Done:  E(UB97D) =  -3034.58637986     A.U. after    1 cycles
 SCF Done:  E(UBHandHLYP) =  -3033.97315200     A.U. after   18 cycles
 SCF Done:  E(UBHandH) =  -3026.31707422     A.U. after   14 cycles
 SCF Done:  E(ULC-wPBE) =  -3033.45691815     A.U. after   19 cycles
 SCF Done:  E(UB-P86) =  -3034.63694300     A.U. after   16 cycles
 SCF Done:  E(UmPW1LYP) =  -3034.04973773     A.U. after   13 cycles
 SCF Done:  E(UmPW1PBE) =  -3033.89084430     A.U. after   13 cycles
 SCF Done:  E(UmPW3PBE) =  -3033.66356563     A.U. after   13 cycles
 SCF Done:  E(UM11) =  -3033.81406409     A.U. after   17 cycles
 SCF Done:  E(UN12SX) =  -3033.25544546     A.U. after   17 cycles
 SCF Done:  E(UMN12SX) =  -3033.65588043     A.U. after   16 cycles
 SCF Done:  E(UB1B95) =  -3034.38621885     A.U. after   15 cycles
 Normal termination of Gaussian 16 at Wed Feb 12 15:14:24 2020.
 SCF Done:  E(UB3PW91) =  -3033.97922872     A.U. after   13 cycles
 Normal termination of Gaussian 16 at Wed Feb 12 15:27:08 2020.
 SCF Done:  E(UM06L) =  -3034.20019021     A.U. after   17 cycles
 Normal termination of Gaussian 16 at Wed Feb 12 15:45:13 2020.
 Gaussian 16:  ES64L-G16RevA.03 25-Dec-2016

                         Standard orientation:
 ---------------------------------------------------------------------
 Center     Atomic      Atomic             Coordinates (Angstroms)
 Number     Number       Type             X           Y           Z
 ---------------------------------------------------------------------
      1          8           0       -0.306272   -0.155700   -0.692894
      2          6           0       -1.183748   -1.080097   -0.595380
      3          6           0       -3.097344   -0.057993    0.168461
      4          6           0       -2.381263    1.043503   -0.184143
      5          6           0       -2.434083    1.612726   -1.567862
      6         26           0        1.454372    0.083912    0.044407
      7         17           0        2.084404    2.011454   -0.773607
      8          6           0       -1.563643    1.834565    0.788336
      9         17           0        2.511547   -1.690200   -0.700285
     10         17           0        1.295229    0.073560    2.242921
     11          1           0       -3.754969   -0.481758   -0.587700
     12          1           0       -2.183610    2.660909    1.165017
     13          1           0       -1.222439    1.257610    1.647904
     14          1           0       -0.694245    2.283370    0.299496
     15          1           0       -2.735656    2.666225   -1.506538
     16          1           0       -1.434900    1.598786   -2.018934
     17          1           0       -3.143550    1.093825   -2.216825
     18          6           0       -3.389495   -0.488325    1.582533
     19          1           0       -4.289187    0.029718    1.940716
     20          1           0       -3.595281   -1.560484    1.646823
     21          1           0       -2.581344   -0.253211    2.278817
     22          6           0       -1.065492   -2.072212    0.527105
     23          1           0       -1.941600   -2.714745    0.615556
     24          1           0       -0.201101   -2.700630    0.265041
     25          1           0       -0.835998   -1.591452    1.478034
     26          6           0       -1.767086   -1.584115   -1.890325
     27          1           0       -0.985362   -2.219563   -2.330537
     28          1           0       -2.661401   -2.191466   -1.742256
     29          1           0       -1.959993   -0.773407   -2.591876
 ---------------------------------------------------------------------

 SCF Done:  E(UB97D3) =  -3034.62199094     A.U. after   17 cycles
 Normal termination of Gaussian 16 at Wed Feb 12 15:58:21 2020.
