 Gaussian 16, Revision A.03,

 --------------------------------
 #t pop=none jul-cc-pvdz upbe1pbe
 --------------------------------
 ------------------------
 theory_abbreviation pbe0
 ------------------------
 Symbolic Z-matrix:
 Charge =  0 Multiplicity = 6

 SCF Done:  E(UPBE1PBE) =  -3033.10781350     A.U. after   21 cycles
 Normal termination of Gaussian 16 at Tue Feb 11 13:58:12 2020.

 ---------------------------------------------------------------------
 #t pop=none jul-cc-pvdz guess=read upbe1pbe empiricaldispersion=gd3bj
 ---------------------------------------------------------------------
 -----------------------------
 theory_abbreviation pbe0_d3bj
 -----------------------------
 Symbolic Z-matrix:
 Charge =  0 Multiplicity = 6

 SCF Done:  E(UPBE1PBE) =  -3033.14472161     A.U. after    1 cycles
 Normal termination of Gaussian 16 at Tue Feb 11 13:59:23 2020.

 -----------------------------------------
 #t pop=none jul-cc-pvdz guess=read ub3lyp
 -----------------------------------------
 -------------------------
 theory_abbreviation b3lyp
 -------------------------
 Symbolic Z-matrix:
 Charge =  0 Multiplicity = 6

 SCF Done:  E(UB3LYP) =  -3034.32127879     A.U. after   13 cycles
 Normal termination of Gaussian 16 at Tue Feb 11 14:13:04 2020.

 -------------------------------------------------------------------
 #t pop=none jul-cc-pvdz guess=read ub3lyp empiricaldispersion=gd3bj
 -------------------------------------------------------------------
 ------------------------------
 theory_abbreviation b3lyp_d3bj
 ------------------------------
 Symbolic Z-matrix:
 Charge =  0 Multiplicity = 6

 SCF Done:  E(UB3LYP) =  -3034.38992924     A.U. after    1 cycles
 Normal termination of Gaussian 16 at Tue Feb 11 14:14:20 2020.

 ----------------------------------------
 #t pop=none jul-cc-pvdz guess=read ub97d
 ----------------------------------------
 ------------------------
 theory_abbreviation b97d
 ------------------------
 Symbolic Z-matrix:
 Charge =  0 Multiplicity = 6

 SCF Done:  E(UB97D) =  -3034.57189522     A.U. after   16 cycles

 ----------------------------------------------------------------
 #t pop=none jul-cc-pvdz guess=read ub97d empiricaldispersion=gd3
 ----------------------------------------------------------------
 -------------------------
 theory_abbreviation b97d3
 -------------------------
 Symbolic Z-matrix:
 Charge =  0 Multiplicity = 6

 SCF Done:  E(UB97D) =  -3034.57287713     A.U. after    1 cycles
 SCF Done:  E(UBHandHLYP) =  -3033.96361630     A.U. after   16 cycles
 SCF Done:  E(UBHandH) =  -3026.30883248     A.U. after   14 cycles
 SCF Done:  E(ULC-wPBE) =  -3033.45164218     A.U. after   17 cycles
 SCF Done:  E(UB-P86) =  -3034.62764145     A.U. after   16 cycles
 SCF Done:  E(UmPW1LYP) =  -3034.03954326     A.U. after   14 cycles
 SCF Done:  E(UmPW1PBE) =  -3033.88232606     A.U. after   14 cycles
 SCF Done:  E(UmPW3PBE) =  -3033.65466810     A.U. after   13 cycles
 SCF Done:  E(UM11) =  -3033.80265704     A.U. after   16 cycles
 SCF Done:  E(UN12SX) =  -3033.24802730     A.U. after   16 cycles
 SCF Done:  E(UMN12SX) =  -3033.64368721     A.U. after   16 cycles
 SCF Done:  E(UB1B95) =  -3034.37374937     A.U. after   15 cycles
 Normal termination of Gaussian 16 at Tue Feb 11 22:31:20 2020.
 SCF Done:  E(UB3PW91) =  -3033.97009492     A.U. after   14 cycles
 Normal termination of Gaussian 16 at Tue Feb 11 22:45:54 2020.
 SCF Done:  E(UM06L) =  -3034.18491045     A.U. after   18 cycles
 Normal termination of Gaussian 16 at Tue Feb 11 23:08:28 2020.
 Gaussian 16:  ES64L-G16RevA.03 25-Dec-2016

                         Standard orientation:
 ---------------------------------------------------------------------
 Center     Atomic      Atomic             Coordinates (Angstroms)
 Number     Number       Type             X           Y           Z
 ---------------------------------------------------------------------
      1          8           0       -0.387699   -0.199005   -0.537292
      2          6           0       -1.395762   -1.206380   -0.384768
      3          6           0       -2.818054   -0.123288   -0.175036
      4          6           0       -1.998767    1.121925   -0.273451
      5          6           0       -1.895751    1.827943   -1.572572
      6         26           0        1.378288    0.044546    0.036557
      7         17           0        1.817046    2.036855   -0.829283
      8          6           0       -1.572065    1.853888    0.941707
      9         17           0        2.525647   -1.666928   -0.717019
     10         17           0        1.327911    0.144287    2.251709
     11          1           0       -3.429649   -0.246845   -1.071603
     12          1           0       -2.436152    2.459863    1.261197
     13          1           0       -1.310015    1.189469    1.765741
     14          1           0       -0.737640    2.526272    0.732629
     15          1           0       -2.668330    2.615003   -1.569116
     16          1           0       -0.920721    2.311822   -1.676768
     17          1           0       -2.086830    1.166544   -2.418794
     18          6           0       -3.630815   -0.345811    1.088846
     19          1           0       -4.431342    0.398100    1.182204
     20          1           0       -4.103238   -1.331820    1.052762
     21          1           0       -3.022028   -0.302122    1.994754
     22          6           0       -1.165173   -2.074066    0.830554
     23          1           0       -1.984578   -2.785638    0.971186
     24          1           0       -0.240985   -2.644588    0.674565
     25          1           0       -1.033821   -1.482322    1.738130
     26          6           0       -1.535216   -1.989859   -1.671476
     27          1           0       -0.594627   -2.522000   -1.857651
     28          1           0       -2.347867   -2.721152   -1.605976
     29          1           0       -1.716724   -1.324484   -2.520163
 ---------------------------------------------------------------------

 SCF Done:  E(UB97D3) =  -3034.60799768     A.U. after   15 cycles
 Normal termination of Gaussian 16 at Tue Feb 11 23:20:35 2020.
