 Gaussian 16, Revision A.03,

 --------------------------------
 #t pop=none jul-cc-pvdz upbe1pbe
 --------------------------------
 ------------------------
 theory_abbreviation pbe0
 ------------------------
 Symbolic Z-matrix:
 Charge =  0 Multiplicity = 6

 SCF Done:  E(UPBE1PBE) =  -3033.10981652     A.U. after   21 cycles
 Normal termination of Gaussian 16 at Tue Feb 11 13:57:55 2020.

 ---------------------------------------------------------------------
 #t pop=none jul-cc-pvdz guess=read upbe1pbe empiricaldispersion=gd3bj
 ---------------------------------------------------------------------
 -----------------------------
 theory_abbreviation pbe0_d3bj
 -----------------------------
 Symbolic Z-matrix:
 Charge =  0 Multiplicity = 6

 SCF Done:  E(UPBE1PBE) =  -3033.14674600     A.U. after    1 cycles
 Normal termination of Gaussian 16 at Tue Feb 11 13:59:07 2020.

 -----------------------------------------
 #t pop=none jul-cc-pvdz guess=read ub3lyp
 -----------------------------------------
 -------------------------
 theory_abbreviation b3lyp
 -------------------------
 Symbolic Z-matrix:
 Charge =  0 Multiplicity = 6

 SCF Done:  E(UB3LYP) =  -3034.32306703     A.U. after   13 cycles
 Normal termination of Gaussian 16 at Tue Feb 11 14:12:50 2020.

 -------------------------------------------------------------------
 #t pop=none jul-cc-pvdz guess=read ub3lyp empiricaldispersion=gd3bj
 -------------------------------------------------------------------
 ------------------------------
 theory_abbreviation b3lyp_d3bj
 ------------------------------
 Symbolic Z-matrix:
 Charge =  0 Multiplicity = 6

 SCF Done:  E(UB3LYP) =  -3034.39177746     A.U. after    1 cycles
 Normal termination of Gaussian 16 at Tue Feb 11 14:14:01 2020.

 ----------------------------------------
 #t pop=none jul-cc-pvdz guess=read ub97d
 ----------------------------------------
 ------------------------
 theory_abbreviation b97d
 ------------------------
 Symbolic Z-matrix:
 Charge =  0 Multiplicity = 6

 SCF Done:  E(UB97D) =  -3034.57328025     A.U. after   15 cycles

 ----------------------------------------------------------------
 #t pop=none jul-cc-pvdz guess=read ub97d empiricaldispersion=gd3
 ----------------------------------------------------------------
 -------------------------
 theory_abbreviation b97d3
 -------------------------
 Symbolic Z-matrix:
 Charge =  0 Multiplicity = 6

 SCF Done:  E(UB97D) =  -3034.57429337     A.U. after    3 cycles
 SCF Done:  E(UBHandHLYP) =  -3033.96627323     A.U. after   16 cycles
 SCF Done:  E(UBHandH) =  -3026.31176118     A.U. after   14 cycles
 SCF Done:  E(ULC-wPBE) =  -3033.45420659     A.U. after   17 cycles
 SCF Done:  E(UB-P86) =  -3034.62901330     A.U. after   16 cycles
 SCF Done:  E(UmPW1LYP) =  -3034.04146179     A.U. after   14 cycles
 SCF Done:  E(UmPW1PBE) =  -3033.88430792     A.U. after   14 cycles
 SCF Done:  E(UmPW3PBE) =  -3033.65652411     A.U. after   14 cycles
 SCF Done:  E(UM11) =  -3033.80500377     A.U. after   16 cycles
 SCF Done:  E(UN12SX) =  -3033.24996135     A.U. after   16 cycles
 SCF Done:  E(UMN12SX) =  -3033.64596961     A.U. after   16 cycles
 SCF Done:  E(UB1B95) =  -3034.37568685     A.U. after   15 cycles
 Normal termination of Gaussian 16 at Tue Feb 11 23:06:47 2020.
 SCF Done:  E(UB3PW91) =  -3033.97193887     A.U. after   14 cycles
 Normal termination of Gaussian 16 at Tue Feb 11 23:21:49 2020.
 SCF Done:  E(UM06L) =  -3034.18700205     A.U. after   18 cycles
 Normal termination of Gaussian 16 at Tue Feb 11 23:42:17 2020.
 Gaussian 16:  ES64L-G16RevA.03 25-Dec-2016

                         Standard orientation:
 ---------------------------------------------------------------------
 Center     Atomic      Atomic             Coordinates (Angstroms)
 Number     Number       Type             X           Y           Z
 ---------------------------------------------------------------------
      1          8           0       -0.370712   -0.229159   -0.567502
      2          6           0       -1.411498   -1.199909   -0.392615
      3          6           0       -2.786172   -0.138850   -0.175993
      4          6           0       -2.005452    1.133764   -0.263228
      5          6           0       -1.903953    1.847789   -1.555113
      6         26           0        1.376754    0.038541    0.029912
      7         17           0        1.789451    2.049518   -0.815943
      8          6           0       -1.571582    1.848378    0.956364
      9         17           0        2.581358   -1.638994   -0.709380
     10         17           0        1.304922    0.135248    2.247920
     11          1           0       -3.406420   -0.251665   -1.068835
     12          1           0       -2.444066    2.426904    1.304391
     13          1           0       -1.282037    1.172573    1.762213
     14          1           0       -0.756302    2.543943    0.747567
     15          1           0       -2.656376    2.654309   -1.534815
     16          1           0       -0.919393    2.313585   -1.660462
     17          1           0       -2.116045    1.200244   -2.406717
     18          6           0       -3.607696   -0.367544    1.084752
     19          1           0       -4.413020    0.371491    1.171200
     20          1           0       -4.073623   -1.356281    1.043968
     21          1           0       -3.005427   -0.321190    1.994726
     22          6           0       -1.168993   -2.078382    0.816734
     23          1           0       -1.991662   -2.783878    0.968701
     24          1           0       -0.252970   -2.655439    0.641099
     25          1           0       -1.016375   -1.493646    1.725547
     26          6           0       -1.575132   -1.992959   -1.674493
     27          1           0       -0.649303   -2.548731   -1.862118
     28          1           0       -2.405321   -2.703830   -1.599972
     29          1           0       -1.746132   -1.329022   -2.526799
 ---------------------------------------------------------------------

 SCF Done:  E(UB97D3) =  -3034.60945317     A.U. after   15 cycles
 Normal termination of Gaussian 16 at Tue Feb 11 23:54:34 2020.
