 Gaussian 16, Revision A.03,

 --------------------------------
 #t pop=none jul-cc-pvdz upbe1pbe
 --------------------------------
 ------------------------
 theory_abbreviation pbe0
 ------------------------
 Symbolic Z-matrix:
 Charge =  0 Multiplicity = 6

 SCF Done:  E(UPBE1PBE) =  -3033.11408936     A.U. after   21 cycles
 Normal termination of Gaussian 16 at Tue Feb 11 13:59:18 2020.

 ---------------------------------------------------------------------
 #t pop=none jul-cc-pvdz guess=read upbe1pbe empiricaldispersion=gd3bj
 ---------------------------------------------------------------------
 -----------------------------
 theory_abbreviation pbe0_d3bj
 -----------------------------
 Symbolic Z-matrix:
 Charge =  0 Multiplicity = 6

 SCF Done:  E(UPBE1PBE) =  -3033.15007014     A.U. after    1 cycles
 Normal termination of Gaussian 16 at Tue Feb 11 14:00:30 2020.

 -----------------------------------------
 #t pop=none jul-cc-pvdz guess=read ub3lyp
 -----------------------------------------
 -------------------------
 theory_abbreviation b3lyp
 -------------------------
 Symbolic Z-matrix:
 Charge =  0 Multiplicity = 6

 SCF Done:  E(UB3LYP) =  -3034.32767751     A.U. after   13 cycles
 Normal termination of Gaussian 16 at Tue Feb 11 14:14:23 2020.

 -------------------------------------------------------------------
 #t pop=none jul-cc-pvdz guess=read ub3lyp empiricaldispersion=gd3bj
 -------------------------------------------------------------------
 ------------------------------
 theory_abbreviation b3lyp_d3bj
 ------------------------------
 Symbolic Z-matrix:
 Charge =  0 Multiplicity = 6

 SCF Done:  E(UB3LYP) =  -3034.39477922     A.U. after    1 cycles
 Normal termination of Gaussian 16 at Tue Feb 11 14:15:34 2020.

 ----------------------------------------
 #t pop=none jul-cc-pvdz guess=read ub97d
 ----------------------------------------
 ------------------------
 theory_abbreviation b97d
 ------------------------
 Symbolic Z-matrix:
 Charge =  0 Multiplicity = 6

 SCF Done:  E(UB97D) =  -3034.58010792     A.U. after   17 cycles

 ----------------------------------------------------------------
 #t pop=none jul-cc-pvdz guess=read ub97d empiricaldispersion=gd3
 ----------------------------------------------------------------
 -------------------------
 theory_abbreviation b97d3
 -------------------------
 Symbolic Z-matrix:
 Charge =  0 Multiplicity = 6

 SCF Done:  E(UB97D) =  -3034.58034489     A.U. after    1 cycles
 SCF Done:  E(UBHandHLYP) =  -3033.96756389     A.U. after   17 cycles
 SCF Done:  E(UBHandH) =  -3026.31422107     A.U. after   16 cycles
 SCF Done:  E(ULC-wPBE) =  -3033.45182818     A.U. after   18 cycles
 SCF Done:  E(UB-P86) =  -3034.63259561     A.U. after   17 cycles
 SCF Done:  E(UmPW1LYP) =  -3034.04534438     A.U. after   15 cycles
 SCF Done:  E(UmPW1PBE) =  -3033.88861805     A.U. after   16 cycles
 SCF Done:  E(UmPW3PBE) =  -3033.66134933     A.U. after   15 cycles
 SCF Done:  E(UM11) =  -3033.80927883     A.U. after   19 cycles
 SCF Done:  E(UN12SX) =  -3033.25369331     A.U. after   17 cycles
 SCF Done:  E(UMN12SX) =  -3033.64928518     A.U. after   16 cycles
 SCF Done:  E(UB1B95) =  -3034.38130724     A.U. after   16 cycles
 Normal termination of Gaussian 16 at Tue Feb 11 23:07:29 2020.
 SCF Done:  E(UB3PW91) =  -3033.97686723     A.U. after   15 cycles
 Normal termination of Gaussian 16 at Tue Feb 11 23:22:44 2020.
 SCF Done:  E(UM06L) =  -3034.19330337     A.U. after   16 cycles
 Normal termination of Gaussian 16 at Tue Feb 11 23:40:19 2020.
 Gaussian 16:  ES64L-G16RevA.03 25-Dec-2016

                         Standard orientation:
 ---------------------------------------------------------------------
 Center     Atomic      Atomic             Coordinates (Angstroms)
 Number     Number       Type             X           Y           Z
 ---------------------------------------------------------------------
      1          8           0       -0.326566   -0.129345   -0.443808
      2          6           0       -1.202244   -1.092178   -0.258272
      3          6           0       -2.601014   -0.342377    0.786353
      4          6           0       -2.970594    0.708066   -0.059228
      5          6           0       -4.041169    0.549853   -1.083056
      6         26           0        1.503820    0.174538   -0.088997
      7         17           0        1.814811    2.183260   -0.924102
      8          6           0       -2.226828    1.979261   -0.039642
      9         17           0        2.538089   -1.479898   -1.103254
     10         17           0        1.790184    0.126538    2.101991
     11          1           0       -3.296270   -1.182495    0.782670
     12          1           0       -2.668262    2.749640   -0.674467
     13          1           0       -2.061617    2.361463    0.971923
     14          1           0       -1.216513    1.726111   -0.424792
     15          1           0       -4.869456    1.219383   -0.807374
     16          1           0       -3.699339    0.884086   -2.070513
     17          1           0       -4.429432   -0.467779   -1.148082
     18          6           0       -1.989028   -0.019408    2.143252
     19          1           0       -2.627019    0.689205    2.682867
     20          1           0       -1.907555   -0.919453    2.754210
     21          1           0       -0.991731    0.416656    2.052949
     22          6           0       -0.749070   -2.225506    0.661954
     23          1           0       -1.566907   -2.903121    0.920379
     24          1           0        0.004963   -2.786481    0.096311
     25          1           0       -0.268273   -1.851466    1.565082
     26          6           0       -1.809702   -1.608166   -1.557077
     27          1           0       -1.035919   -2.208480   -2.048515
     28          1           0       -2.683185   -2.244870   -1.389553
     29          1           0       -2.064833   -0.791189   -2.233210
 ---------------------------------------------------------------------

 SCF Done:  E(UB97D3) =  -3034.61456292     A.U. after   16 cycles
 Normal termination of Gaussian 16 at Tue Feb 11 23:52:56 2020.
