 Gaussian 16, Revision A.03,

 --------------------------------
 #t pop=none jul-cc-pvdz upbe1pbe
 --------------------------------
 ------------------------
 theory_abbreviation pbe0
 ------------------------
 Symbolic Z-matrix:
 Charge =  0 Multiplicity = 6

 SCF Done:  E(UPBE1PBE) =  -3033.11760228     A.U. after   21 cycles
 Normal termination of Gaussian 16 at Tue Feb 11 14:01:04 2020.

 ---------------------------------------------------------------------
 #t pop=none jul-cc-pvdz guess=read upbe1pbe empiricaldispersion=gd3bj
 ---------------------------------------------------------------------
 -----------------------------
 theory_abbreviation pbe0_d3bj
 -----------------------------
 Symbolic Z-matrix:
 Charge =  0 Multiplicity = 6

 SCF Done:  E(UPBE1PBE) =  -3033.15377034     A.U. after    1 cycles
 Normal termination of Gaussian 16 at Tue Feb 11 14:02:14 2020.

 -----------------------------------------
 #t pop=none jul-cc-pvdz guess=read ub3lyp
 -----------------------------------------
 -------------------------
 theory_abbreviation b3lyp
 -------------------------
 Symbolic Z-matrix:
 Charge =  0 Multiplicity = 6

 SCF Done:  E(UB3LYP) =  -3034.33281871     A.U. after   15 cycles
 Normal termination of Gaussian 16 at Tue Feb 11 14:17:59 2020.

 -------------------------------------------------------------------
 #t pop=none jul-cc-pvdz guess=read ub3lyp empiricaldispersion=gd3bj
 -------------------------------------------------------------------
 ------------------------------
 theory_abbreviation b3lyp_d3bj
 ------------------------------
 Symbolic Z-matrix:
 Charge =  0 Multiplicity = 6

 SCF Done:  E(UB3LYP) =  -3034.40025616     A.U. after    1 cycles
 Normal termination of Gaussian 16 at Tue Feb 11 14:19:09 2020.

 ----------------------------------------
 #t pop=none jul-cc-pvdz guess=read ub97d
 ----------------------------------------
 ------------------------
 theory_abbreviation b97d
 ------------------------
 Symbolic Z-matrix:
 Charge =  0 Multiplicity = 6

 SCF Done:  E(UB97D) =  -3034.58551509     A.U. after   17 cycles

 ----------------------------------------------------------------
 #t pop=none jul-cc-pvdz guess=read ub97d empiricaldispersion=gd3
 ----------------------------------------------------------------
 -------------------------
 theory_abbreviation b97d3
 -------------------------
 Symbolic Z-matrix:
 Charge =  0 Multiplicity = 6

 SCF Done:  E(UB97D) =  -3034.58628811     A.U. after    1 cycles
 SCF Done:  E(UBHandHLYP) =  -3033.97185804     A.U. after   17 cycles
 SCF Done:  E(UBHandH) =  -3026.31565699     A.U. after   16 cycles
 SCF Done:  E(ULC-wPBE) =  -3033.45475221     A.U. after   18 cycles
 SCF Done:  E(UB-P86) =  -3034.63716005     A.U. after   17 cycles
 SCF Done:  E(UmPW1LYP) =  -3034.05044064     A.U. after   16 cycles
 SCF Done:  E(UmPW1PBE) =  -3033.89223011     A.U. after   16 cycles
 SCF Done:  E(UmPW3PBE) =  -3033.66521059     A.U. after   13 cycles
 SCF Done:  E(UM11) =  -3033.81314031     A.U. after   19 cycles
 SCF Done:  E(UN12SX) =  -3033.25687207     A.U. after   17 cycles
 SCF Done:  E(UMN12SX) =  -3033.65361741     A.U. after   17 cycles
 SCF Done:  E(UB1B95) =  -3034.38561492     A.U. after   16 cycles
 Normal termination of Gaussian 16 at Tue Feb 11 23:13:53 2020.
 SCF Done:  E(UB3PW91) =  -3033.98094287     A.U. after   15 cycles
 Normal termination of Gaussian 16 at Tue Feb 11 23:29:34 2020.
 SCF Done:  E(UM06L) =  -3034.19755883     A.U. after   16 cycles
 Normal termination of Gaussian 16 at Tue Feb 11 23:47:22 2020.
 Gaussian 16:  ES64L-G16RevA.03 25-Dec-2016

                         Standard orientation:
 ---------------------------------------------------------------------
 Center     Atomic      Atomic             Coordinates (Angstroms)
 Number     Number       Type             X           Y           Z
 ---------------------------------------------------------------------
      1          8           0       -0.306739   -0.174502   -0.466757
      2          6           0       -1.157602   -1.122241   -0.234587
      3          6           0       -2.649946   -0.248778    0.866539
      4          6           0       -3.049849    0.680885   -0.074710
      5          6           0       -4.143055    0.399074   -1.052544
      6         26           0        1.533033    0.175535   -0.098199
      7         17           0        1.857796    2.125601   -1.040708
      8          6           0       -2.334958    1.975886   -0.204578
      9         17           0        2.545922   -1.541992   -1.020430
     10         17           0        1.816756    0.231055    2.086607
     11          1           0       -3.285369   -1.129547    0.955122
     12          1           0       -2.814666    2.654948   -0.912639
     13          1           0       -2.202835    2.478120    0.758980
     14          1           0       -1.316354    1.746053   -0.567983
     15          1           0       -4.972225    1.091710   -0.848925
     16          1           0       -3.822514    0.604344   -2.081563
     17          1           0       -4.526140   -0.621102   -0.984478
     18          6           0       -1.941302    0.191099    2.134180
     19          1           0       -2.536391    0.953959    2.649563
     20          1           0       -1.813224   -0.644793    2.823530
     21          1           0       -0.954426    0.614847    1.934702
     22          6           0       -0.751249   -2.175856    0.784131
     23          1           0       -1.584108   -2.817121    1.080965
     24          1           0        0.001642   -2.795170    0.278297
     25          1           0       -0.274758   -1.737237    1.659936
     26          6           0       -1.831717   -1.683633   -1.471792
     27          1           0       -1.096843   -2.343600   -1.949382
     28          1           0       -2.720053   -2.275024   -1.236871
     29          1           0       -2.076665   -0.896186   -2.184819
 ---------------------------------------------------------------------

 SCF Done:  E(UB97D3) =  -3034.62102813     A.U. after   15 cycles
 Normal termination of Gaussian 16 at Tue Feb 11 23:59:10 2020.
