 Gaussian 16, Revision A.03,

 --------------------------------
 #t pop=none jul-cc-pvdz upbe1pbe
 --------------------------------
 ------------------------
 theory_abbreviation pbe0
 ------------------------
 Symbolic Z-matrix:
 Charge =  0 Multiplicity = 6

 SCF Done:  E(UPBE1PBE) =  -3033.09651285     A.U. after   22 cycles
 Normal termination of Gaussian 16 at Tue Feb 11 14:00:39 2020.

 ---------------------------------------------------------------------
 #t pop=none jul-cc-pvdz guess=read upbe1pbe empiricaldispersion=gd3bj
 ---------------------------------------------------------------------
 -----------------------------
 theory_abbreviation pbe0_d3bj
 -----------------------------
 Symbolic Z-matrix:
 Charge =  0 Multiplicity = 6

 SCF Done:  E(UPBE1PBE) =  -3033.13392198     A.U. after    1 cycles
 Normal termination of Gaussian 16 at Tue Feb 11 14:01:51 2020.

 -----------------------------------------
 #t pop=none jul-cc-pvdz guess=read ub3lyp
 -----------------------------------------
 -------------------------
 theory_abbreviation b3lyp
 -------------------------
 Symbolic Z-matrix:
 Charge =  0 Multiplicity = 6

 SCF Done:  E(UB3LYP) =  -3034.30937428     A.U. after   14 cycles
 Normal termination of Gaussian 16 at Tue Feb 11 14:16:57 2020.

 -------------------------------------------------------------------
 #t pop=none jul-cc-pvdz guess=read ub3lyp empiricaldispersion=gd3bj
 -------------------------------------------------------------------
 ------------------------------
 theory_abbreviation b3lyp_d3bj
 ------------------------------
 Symbolic Z-matrix:
 Charge =  0 Multiplicity = 6

 SCF Done:  E(UB3LYP) =  -3034.37905245     A.U. after    1 cycles
 Normal termination of Gaussian 16 at Tue Feb 11 14:18:08 2020.

 ----------------------------------------
 #t pop=none jul-cc-pvdz guess=read ub97d
 ----------------------------------------
 ------------------------
 theory_abbreviation b97d
 ------------------------
 Symbolic Z-matrix:
 Charge =  0 Multiplicity = 6

 SCF Done:  E(UB97D) =  -3034.56157274     A.U. after   16 cycles

 ----------------------------------------------------------------
 #t pop=none jul-cc-pvdz guess=read ub97d empiricaldispersion=gd3
 ----------------------------------------------------------------
 -------------------------
 theory_abbreviation b97d3
 -------------------------
 Symbolic Z-matrix:
 Charge =  0 Multiplicity = 6

 SCF Done:  E(UB97D) =  -3034.56252618     A.U. after    1 cycles
 SCF Done:  E(UBHandHLYP) =  -3033.95205869     A.U. after   18 cycles
 SCF Done:  E(UBHandH) =  -3026.29939460     A.U. after   15 cycles
 SCF Done:  E(ULC-wPBE) =  -3033.43717121     A.U. after   18 cycles
 SCF Done:  E(UB-P86) =  -3034.61583330     A.U. after   16 cycles
 SCF Done:  E(UmPW1LYP) =  -3034.02766206     A.U. after   15 cycles
 SCF Done:  E(UmPW1PBE) =  -3033.87098028     A.U. after   15 cycles
 SCF Done:  E(UmPW3PBE) =  -3033.64326166     A.U. after   12 cycles
 SCF Done:  E(UM11) =  -3033.79311336     A.U. after   18 cycles
 SCF Done:  E(UN12SX) =  -3033.23669024     A.U. after   15 cycles
 SCF Done:  E(UMN12SX) =  -3033.63491911     A.U. after   15 cycles
 SCF Done:  E(UB1B95) =  -3034.36489179     A.U. after   16 cycles
 Normal termination of Gaussian 16 at Tue Feb 11 22:47:38 2020.
 SCF Done:  E(UB3PW91) =  -3033.95858480     A.U. after   14 cycles
 Normal termination of Gaussian 16 at Tue Feb 11 23:03:37 2020.
 SCF Done:  E(UM06L) =  -3034.17577369     A.U. after   17 cycles
 Normal termination of Gaussian 16 at Tue Feb 11 23:22:32 2020.
 Gaussian 16:  ES64L-G16RevA.03 25-Dec-2016

                         Standard orientation:
 ---------------------------------------------------------------------
 Center     Atomic      Atomic             Coordinates (Angstroms)
 Number     Number       Type             X           Y           Z
 ---------------------------------------------------------------------
      1          8           0       -0.364279   -0.106420   -0.502825
      2          6           0       -1.304351   -1.074223   -0.434286
      3          6           0       -2.991062   -0.040649   -0.139790
      4          6           0       -2.139552    1.078066   -0.242196
      5          6           0       -1.940789    1.768488   -1.545697
      6         26           0        1.417710    0.048065    0.047712
      7         17           0        1.951264    2.018841   -0.796164
      8          6           0       -1.598166    1.765592    0.962424
      9         17           0        2.438836   -1.724945   -0.766125
     10         17           0        1.388723    0.065467    2.264067
     11          1           0       -3.545759   -0.272344   -1.047106
     12          1           0       -2.394818    2.430829    1.331469
     13          1           0       -1.345141    1.077762    1.770060
     14          1           0       -0.722936    2.370948    0.721532
     15          1           0       -2.589250    2.658892   -1.526040
     16          1           0       -0.908275    2.105715   -1.662734
     17          1           0       -2.242719    1.157061   -2.397833
     18          6           0       -3.704302   -0.413994    1.139543
     19          1           0       -4.590006    0.219456    1.276812
     20          1           0       -4.051103   -1.450599    1.100701
     21          1           0       -3.077517   -0.302210    2.026624
     22          6           0       -1.195411   -1.994268    0.753441
     23          1           0       -2.037802   -2.685109    0.826504
     24          1           0       -0.279382   -2.581769    0.597299
     25          1           0       -1.065724   -1.445282    1.686956
     26          6           0       -1.556969   -1.755127   -1.757821
     27          1           0       -0.640622   -2.312105   -1.996576
     28          1           0       -2.397584   -2.452510   -1.711050
     29          1           0       -1.713954   -1.029531   -2.558468
 ---------------------------------------------------------------------

 SCF Done:  E(UB97D3) =  -3034.59769539     A.U. after   15 cycles
 Normal termination of Gaussian 16 at Tue Feb 11 23:34:42 2020.
