 Gaussian 16, Revision A.03,

 --------------------------------
 #t pop=none jul-cc-pvdz upbe1pbe
 --------------------------------
 ------------------------
 theory_abbreviation pbe0
 ------------------------
 Symbolic Z-matrix:
 Charge =  0 Multiplicity = 6

 SCF Done:  E(UPBE1PBE) =  -3033.13095245     A.U. after   21 cycles
 Normal termination of Gaussian 16 at Tue Feb 11 13:59:46 2020.

 ---------------------------------------------------------------------
 #t pop=none jul-cc-pvdz guess=read upbe1pbe empiricaldispersion=gd3bj
 ---------------------------------------------------------------------
 -----------------------------
 theory_abbreviation pbe0_d3bj
 -----------------------------
 Symbolic Z-matrix:
 Charge =  0 Multiplicity = 6

 SCF Done:  E(UPBE1PBE) =  -3033.16768967     A.U. after    1 cycles
 Normal termination of Gaussian 16 at Tue Feb 11 14:00:55 2020.

 -----------------------------------------
 #t pop=none jul-cc-pvdz guess=read ub3lyp
 -----------------------------------------
 -------------------------
 theory_abbreviation b3lyp
 -------------------------
 Symbolic Z-matrix:
 Charge =  0 Multiplicity = 6

 SCF Done:  E(UB3LYP) =  -3034.34857687     A.U. after   13 cycles
 Normal termination of Gaussian 16 at Tue Feb 11 14:14:30 2020.

 -------------------------------------------------------------------
 #t pop=none jul-cc-pvdz guess=read ub3lyp empiricaldispersion=gd3bj
 -------------------------------------------------------------------
 ------------------------------
 theory_abbreviation b3lyp_d3bj
 ------------------------------
 Symbolic Z-matrix:
 Charge =  0 Multiplicity = 6

 SCF Done:  E(UB3LYP) =  -3034.41674586     A.U. after    1 cycles
 Normal termination of Gaussian 16 at Tue Feb 11 14:15:39 2020.

 ----------------------------------------
 #t pop=none jul-cc-pvdz guess=read ub97d
 ----------------------------------------
 ------------------------
 theory_abbreviation b97d
 ------------------------
 Symbolic Z-matrix:
 Charge =  0 Multiplicity = 6

 SCF Done:  E(UB97D) =  -3034.60064154     A.U. after   15 cycles

 ----------------------------------------------------------------
 #t pop=none jul-cc-pvdz guess=read ub97d empiricaldispersion=gd3
 ----------------------------------------------------------------
 -------------------------
 theory_abbreviation b97d3
 -------------------------
 Symbolic Z-matrix:
 Charge =  0 Multiplicity = 6

 SCF Done:  E(UB97D) =  -3034.60170839     A.U. after    1 cycles
 SCF Done:  E(UBHandHLYP) =  -3033.98959389     A.U. after   17 cycles
 SCF Done:  E(UBHandH) =  -3026.32812425     A.U. after   14 cycles
 SCF Done:  E(ULC-wPBE) =  -3033.47106187     A.U. after   19 cycles
 SCF Done:  E(UB-P86) =  -3034.65015353     A.U. after   16 cycles
 SCF Done:  E(UmPW1LYP) =  -3034.06677679     A.U. after   13 cycles
 SCF Done:  E(UmPW1PBE) =  -3033.90542189     A.U. after   14 cycles
 SCF Done:  E(UmPW3PBE) =  -3033.67844649     A.U. after   13 cycles
 SCF Done:  E(UM11) =  -3033.82854783     A.U. after   17 cycles
 SCF Done:  E(UN12SX) =  -3033.26976786     A.U. after   16 cycles
 SCF Done:  E(UMN12SX) =  -3033.67111239     A.U. after   16 cycles
 SCF Done:  E(UB1B95) =  -3034.40093279     A.U. after   14 cycles
 Normal termination of Gaussian 16 at Tue Feb 11 22:36:51 2020.
 SCF Done:  E(UB3PW91) =  -3033.99449650     A.U. after   13 cycles
 Normal termination of Gaussian 16 at Tue Feb 11 22:50:22 2020.
 SCF Done:  E(UM06L) =  -3034.21620963     A.U. after   18 cycles
 Normal termination of Gaussian 16 at Tue Feb 11 23:10:29 2020.
 Gaussian 16:  ES64L-G16RevA.03 25-Dec-2016

                         Standard orientation:
 ---------------------------------------------------------------------
 Center     Atomic      Atomic             Coordinates (Angstroms)
 Number     Number       Type             X           Y           Z
 ---------------------------------------------------------------------
      1          8           0        0.200727    0.343752   -0.855666
      2          6           0        1.036496    1.269639   -0.664208
      3          6           0        2.939517    0.228619    0.578691
      4          6           0        2.704046   -0.914826   -0.107720
      5          6           0        3.315003   -1.166511   -1.456850
      6         26           0       -1.485851   -0.164042   -0.007901
      7         17           0       -2.031682   -2.032121   -0.985574
      8          6           0        1.798098   -2.003375    0.380851
      9         17           0       -2.741919    1.568595   -0.465492
     10         17           0       -1.120483   -0.379148    2.149143
     11          1           0        3.653205    0.927600    0.143620
     12          1           0        2.333857   -2.961021    0.404409
     13          1           0        1.379528   -1.815855    1.369149
     14          1           0        0.964498   -2.135216   -0.322999
     15          1           0        3.913001   -2.086549   -1.425765
     16          1           0        2.537007   -1.332048   -2.214462
     17          1           0        3.967261   -0.352211   -1.782995
     18          6           0        2.632593    0.446306    2.040305
     19          1           0        3.390498   -0.058308    2.654056
     20          1           0        2.669319    1.506339    2.304163
     21          1           0        1.656782    0.057410    2.339273
     22          6           0        0.811446    2.266688    0.433847
     23          1           0        1.694737    2.874231    0.633063
     24          1           0        0.009666    2.925415    0.068057
     25          1           0        0.450519    1.796710    1.348384
     26          6           0        1.853690    1.704253   -1.848534
     27          1           0        1.229622    2.431581   -2.387856
     28          1           0        2.779346    2.204587   -1.561898
     29          1           0        2.051560    0.873088   -2.523022
 ---------------------------------------------------------------------

 SCF Done:  E(UB97D3) =  -3034.63681920     A.U. after   15 cycles
 Normal termination of Gaussian 16 at Tue Feb 11 23:22:21 2020.
