 Gaussian 16, Revision A.03,

 --------------------------------
 #t pop=none jul-cc-pvdz upbe1pbe
 --------------------------------
 ------------------------
 theory_abbreviation pbe0
 ------------------------
 Symbolic Z-matrix:
 Charge =  0 Multiplicity = 6

 SCF Done:  E(UPBE1PBE) =  -3033.11634767     A.U. after   21 cycles
 Normal termination of Gaussian 16 at Tue Feb 11 13:59:40 2020.

 ---------------------------------------------------------------------
 #t pop=none jul-cc-pvdz guess=read upbe1pbe empiricaldispersion=gd3bj
 ---------------------------------------------------------------------
 -----------------------------
 theory_abbreviation pbe0_d3bj
 -----------------------------
 Symbolic Z-matrix:
 Charge =  0 Multiplicity = 6

 SCF Done:  E(UPBE1PBE) =  -3033.15359440     A.U. after    1 cycles
 Normal termination of Gaussian 16 at Tue Feb 11 14:00:51 2020.

 -----------------------------------------
 #t pop=none jul-cc-pvdz guess=read ub3lyp
 -----------------------------------------
 -------------------------
 theory_abbreviation b3lyp
 -------------------------
 Symbolic Z-matrix:
 Charge =  0 Multiplicity = 6

 SCF Done:  E(UB3LYP) =  -3034.33115730     A.U. after   13 cycles
 Normal termination of Gaussian 16 at Tue Feb 11 14:14:42 2020.

 -------------------------------------------------------------------
 #t pop=none jul-cc-pvdz guess=read ub3lyp empiricaldispersion=gd3bj
 -------------------------------------------------------------------
 ------------------------------
 theory_abbreviation b3lyp_d3bj
 ------------------------------
 Symbolic Z-matrix:
 Charge =  0 Multiplicity = 6

 SCF Done:  E(UB3LYP) =  -3034.40055620     A.U. after    1 cycles
 Normal termination of Gaussian 16 at Tue Feb 11 14:15:52 2020.

 ----------------------------------------
 #t pop=none jul-cc-pvdz guess=read ub97d
 ----------------------------------------
 ------------------------
 theory_abbreviation b97d
 ------------------------
 Symbolic Z-matrix:
 Charge =  0 Multiplicity = 6

 SCF Done:  E(UB97D) =  -3034.58493818     A.U. after   15 cycles

 ----------------------------------------------------------------
 #t pop=none jul-cc-pvdz guess=read ub97d empiricaldispersion=gd3
 ----------------------------------------------------------------
 -------------------------
 theory_abbreviation b97d3
 -------------------------
 Symbolic Z-matrix:
 Charge =  0 Multiplicity = 6

 SCF Done:  E(UB97D) =  -3034.58587089     A.U. after    1 cycles
 SCF Done:  E(UBHandHLYP) =  -3033.97137269     A.U. after   18 cycles
 SCF Done:  E(UBHandH) =  -3026.31619665     A.U. after   16 cycles
 SCF Done:  E(ULC-wPBE) =  -3033.45527397     A.U. after   19 cycles
 SCF Done:  E(UB-P86) =  -3034.63683738     A.U. after   17 cycles
 SCF Done:  E(UmPW1LYP) =  -3034.04910158     A.U. after   16 cycles
 SCF Done:  E(UmPW1PBE) =  -3033.89076539     A.U. after   16 cycles
 SCF Done:  E(UmPW3PBE) =  -3033.66361093     A.U. after   13 cycles
 SCF Done:  E(UM11) =  -3033.81363855     A.U. after   19 cycles
 SCF Done:  E(UN12SX) =  -3033.25578198     A.U. after   17 cycles
 SCF Done:  E(UMN12SX) =  -3033.65430595     A.U. after   17 cycles
 SCF Done:  E(UB1B95) =  -3034.38509065     A.U. after   16 cycles
 Normal termination of Gaussian 16 at Tue Feb 11 23:12:02 2020.
 SCF Done:  E(UB3PW91) =  -3033.97919569     A.U. after   15 cycles
 Normal termination of Gaussian 16 at Tue Feb 11 23:27:46 2020.
 SCF Done:  E(UM06L) =  -3034.19809899     A.U. after   18 cycles
 Normal termination of Gaussian 16 at Tue Feb 11 23:47:40 2020.
 Gaussian 16:  ES64L-G16RevA.03 25-Dec-2016

                         Standard orientation:
 ---------------------------------------------------------------------
 Center     Atomic      Atomic             Coordinates (Angstroms)
 Number     Number       Type             X           Y           Z
 ---------------------------------------------------------------------
      1          8           0       -0.290752   -0.219329   -0.728151
      2          6           0       -1.181294   -1.140261   -0.567392
      3          6           0       -2.750285   -0.329729    0.568969
      4          6           0       -2.655517    0.893956   -0.051075
      5          6           0       -3.387224    1.193679   -1.321067
      6         26           0        1.449845    0.146463   -0.031972
      7         17           0        1.963288    2.077611   -0.931453
      8          6           0       -1.758706    1.974373    0.437564
      9         17           0        2.666937   -1.563595   -0.666244
     10         17           0        1.252611    0.272766    2.165987
     11          1           0       -3.513946   -1.000987    0.178754
     12          1           0       -2.254146    2.949406    0.369620
     13          1           0       -1.387707    1.821042    1.450044
     14          1           0       -0.888404    2.022003   -0.235102
     15          1           0       -4.042796    2.058786   -1.156029
     16          1           0       -2.684999    1.487226   -2.112552
     17          1           0       -4.002328    0.360944   -1.666846
     18          6           0       -2.422992   -0.519440    2.037525
     19          1           0       -3.135081    0.053653    2.643573
     20          1           0       -2.521372   -1.566920    2.328654
     21          1           0       -1.416925   -0.187398    2.300340
     22          6           0       -0.837841   -2.287796    0.361065
     23          1           0       -1.690329   -2.942143    0.553529
     24          1           0       -0.067067   -2.864416   -0.167936
     25          1           0       -0.400788   -1.945244    1.298321
     26          6           0       -1.888532   -1.557498   -1.843200
     27          1           0       -1.179553   -2.200374   -2.380313
     28          1           0       -2.797254   -2.134365   -1.658260
     29          1           0       -2.101150   -0.703612   -2.484558
 ---------------------------------------------------------------------

 SCF Done:  E(UB97D3) =  -3034.62086082     A.U. after   15 cycles
 Normal termination of Gaussian 16 at Wed Feb 12 00:01:15 2020.
