 Gaussian 16, Revision A.03,

 --------------------------------
 #t pop=none jul-cc-pvdz upbe1pbe
 --------------------------------
 ------------------------
 theory_abbreviation pbe0
 ------------------------
 Symbolic Z-matrix:
 Charge =  0 Multiplicity = 6

 SCF Done:  E(UPBE1PBE) =  -3033.10358567     A.U. after   21 cycles
 Normal termination of Gaussian 16 at Tue Feb 11 14:49:29 2020.

 ---------------------------------------------------------------------
 #t pop=none jul-cc-pvdz guess=read upbe1pbe empiricaldispersion=gd3bj
 ---------------------------------------------------------------------
 -----------------------------
 theory_abbreviation pbe0_d3bj
 -----------------------------
 Symbolic Z-matrix:
 Charge =  0 Multiplicity = 6

 SCF Done:  E(UPBE1PBE) =  -3033.14051330     A.U. after    1 cycles
 Normal termination of Gaussian 16 at Tue Feb 11 14:50:50 2020.

 -----------------------------------------
 #t pop=none jul-cc-pvdz guess=read ub3lyp
 -----------------------------------------
 -------------------------
 theory_abbreviation b3lyp
 -------------------------
 Symbolic Z-matrix:
 Charge =  0 Multiplicity = 6

 SCF Done:  E(UB3LYP) =  -3034.31720379     A.U. after   13 cycles
 Normal termination of Gaussian 16 at Tue Feb 11 15:06:33 2020.

 -------------------------------------------------------------------
 #t pop=none jul-cc-pvdz guess=read ub3lyp empiricaldispersion=gd3bj
 -------------------------------------------------------------------
 ------------------------------
 theory_abbreviation b3lyp_d3bj
 ------------------------------
 Symbolic Z-matrix:
 Charge =  0 Multiplicity = 6

 SCF Done:  E(UB3LYP) =  -3034.38588573     A.U. after    1 cycles
 Normal termination of Gaussian 16 at Tue Feb 11 15:07:52 2020.

 ----------------------------------------
 #t pop=none jul-cc-pvdz guess=read ub97d
 ----------------------------------------
 ------------------------
 theory_abbreviation b97d
 ------------------------
 Symbolic Z-matrix:
 Charge =  0 Multiplicity = 6

 SCF Done:  E(UB97D) =  -3034.56821187     A.U. after   16 cycles

 ----------------------------------------------------------------
 #t pop=none jul-cc-pvdz guess=read ub97d empiricaldispersion=gd3
 ----------------------------------------------------------------
 -------------------------
 theory_abbreviation b97d3
 -------------------------
 Symbolic Z-matrix:
 Charge =  0 Multiplicity = 6

 SCF Done:  E(UB97D) =  -3034.56917617     A.U. after    1 cycles
 SCF Done:  E(UBHandHLYP) =  -3033.95924143     A.U. after   17 cycles
 SCF Done:  E(UBHandH) =  -3026.30446598     A.U. after   13 cycles
 SCF Done:  E(ULC-wPBE) =  -3033.44655191     A.U. after   17 cycles
 SCF Done:  E(UB-P86) =  -3034.62366546     A.U. after   16 cycles
 SCF Done:  E(UmPW1LYP) =  -3034.03543289     A.U. after   14 cycles
 SCF Done:  E(UmPW1PBE) =  -3033.87810819     A.U. after   14 cycles
 SCF Done:  E(UmPW3PBE) =  -3033.65051433     A.U. after   13 cycles
 SCF Done:  E(UM11) =  -3033.79841345     A.U. after   16 cycles
 SCF Done:  E(UN12SX) =  -3033.24382433     A.U. after   16 cycles
 SCF Done:  E(UMN12SX) =  -3033.63972916     A.U. after   16 cycles
 SCF Done:  E(UB1B95) =  -3034.36972332     A.U. after   14 cycles
 Normal termination of Gaussian 16 at Tue Feb 11 23:31:33 2020.
 SCF Done:  E(UB3PW91) =  -3033.96594054     A.U. after   14 cycles
 Normal termination of Gaussian 16 at Tue Feb 11 23:46:07 2020.
 SCF Done:  E(UM06L) =  -3034.18096477     A.U. after   18 cycles
 Normal termination of Gaussian 16 at Wed Feb 12 00:07:30 2020.
 Gaussian 16:  ES64L-G16RevA.03 25-Dec-2016

                         Standard orientation:
 ---------------------------------------------------------------------
 Center     Atomic      Atomic             Coordinates (Angstroms)
 Number     Number       Type             X           Y           Z
 ---------------------------------------------------------------------
      1          8           0       -0.386534   -0.186971   -0.527168
      2          6           0       -1.374542   -1.202323   -0.393383
      3          6           0       -2.849986   -0.110330   -0.162905
      4          6           0       -2.018322    1.110700   -0.275628
      5          6           0       -1.902969    1.801381   -1.582810
      6         26           0        1.381487    0.048090    0.040148
      7         17           0        1.826419    2.038268   -0.826590
      8          6           0       -1.574850    1.850087    0.929865
      9         17           0        2.517771   -1.669962   -0.719118
     10         17           0        1.330447    0.139386    2.256006
     11          1           0       -3.461659   -0.252266   -1.055749
     12          1           0       -2.430920    2.467269    1.249378
     13          1           0       -1.314608    1.190799    1.758606
     14          1           0       -0.734491    2.511145    0.709514
     15          1           0       -2.664876    2.598689   -1.586734
     16          1           0       -0.921344    2.269916   -1.692596
     17          1           0       -2.105439    1.134961   -2.422497
     18          6           0       -3.632816   -0.348453    1.114535
     19          1           0       -4.439522    0.386192    1.228916
     20          1           0       -4.095256   -1.339366    1.084087
     21          1           0       -3.006426   -0.301755    2.008225
     22          6           0       -1.159725   -2.078813    0.815505
     23          1           0       -1.980370   -2.791019    0.943054
     24          1           0       -0.233898   -2.648099    0.660501
     25          1           0       -1.032531   -1.494121    1.728103
     26          6           0       -1.526756   -1.963196   -1.689811
     27          1           0       -0.584772   -2.489195   -1.889333
     28          1           0       -2.336545   -2.697634   -1.630141
     29          1           0       -1.712749   -1.285202   -2.527125
 ---------------------------------------------------------------------

 SCF Done:  E(UB97D3) =  -3034.60421790     A.U. after   15 cycles
 Normal termination of Gaussian 16 at Wed Feb 12 00:19:36 2020.
