 Gaussian 16, Revision A.03,

 --------------------------------
 #t pop=none jul-cc-pvdz upbe1pbe
 --------------------------------
 ------------------------
 theory_abbreviation pbe0
 ------------------------
 Symbolic Z-matrix:
 Charge =  0 Multiplicity = 6

 SCF Done:  E(UPBE1PBE) =  -3033.10284434     A.U. after   21 cycles
 Normal termination of Gaussian 16 at Tue Feb 11 20:05:59 2020.

 ---------------------------------------------------------------------
 #t pop=none jul-cc-pvdz guess=read upbe1pbe empiricaldispersion=gd3bj
 ---------------------------------------------------------------------
 -----------------------------
 theory_abbreviation pbe0_d3bj
 -----------------------------
 Symbolic Z-matrix:
 Charge =  0 Multiplicity = 6

 SCF Done:  E(UPBE1PBE) =  -3033.14017365     A.U. after    1 cycles
 Normal termination of Gaussian 16 at Tue Feb 11 20:07:08 2020.

 -----------------------------------------
 #t pop=none jul-cc-pvdz guess=read ub3lyp
 -----------------------------------------
 -------------------------
 theory_abbreviation b3lyp
 -------------------------
 Symbolic Z-matrix:
 Charge =  0 Multiplicity = 6

 SCF Done:  E(UB3LYP) =  -3034.31586245     A.U. after   15 cycles
 Normal termination of Gaussian 16 at Tue Feb 11 20:22:24 2020.

 -------------------------------------------------------------------
 #t pop=none jul-cc-pvdz guess=read ub3lyp empiricaldispersion=gd3bj
 -------------------------------------------------------------------
 ------------------------------
 theory_abbreviation b3lyp_d3bj
 ------------------------------
 Symbolic Z-matrix:
 Charge =  0 Multiplicity = 6

 SCF Done:  E(UB3LYP) =  -3034.38539331     A.U. after    1 cycles
 Normal termination of Gaussian 16 at Tue Feb 11 20:23:32 2020.

 ----------------------------------------
 #t pop=none jul-cc-pvdz guess=read ub97d
 ----------------------------------------
 ------------------------
 theory_abbreviation b97d
 ------------------------
 Symbolic Z-matrix:
 Charge =  0 Multiplicity = 6

 SCF Done:  E(UB97D) =  -3034.56805233     A.U. after   16 cycles

 ----------------------------------------------------------------
 #t pop=none jul-cc-pvdz guess=read ub97d empiricaldispersion=gd3
 ----------------------------------------------------------------
 -------------------------
 theory_abbreviation b97d3
 -------------------------
 Symbolic Z-matrix:
 Charge =  0 Multiplicity = 6

 SCF Done:  E(UB97D) =  -3034.56872678     A.U. after    1 cycles
 SCF Done:  E(UBHandHLYP) =  -3033.95884206     A.U. after   17 cycles
 SCF Done:  E(UBHandH) =  -3026.30604952     A.U. after   14 cycles
 SCF Done:  E(ULC-wPBE) =  -3033.44343011     A.U. after   18 cycles
 SCF Done:  E(UB-P86) =  -3034.62138616     A.U. after   16 cycles
 SCF Done:  E(UmPW1LYP) =  -3034.03419816     A.U. after   14 cycles
 SCF Done:  E(UmPW1PBE) =  -3033.87728053     A.U. after   14 cycles
 SCF Done:  E(UmPW3PBE) =  -3033.64954788     A.U. after   13 cycles
 SCF Done:  E(UM11) =  -3033.80067456     A.U. after   19 cycles
 SCF Done:  E(UN12SX) =  -3033.24285018     A.U. after   17 cycles
 SCF Done:  E(UMN12SX) =  -3033.64138316     A.U. after   16 cycles
 SCF Done:  E(UB1B95) =  -3034.37142766     A.U. after   16 cycles
 Normal termination of Gaussian 16 at Wed Feb 12 04:42:51 2020.
 SCF Done:  E(UB3PW91) =  -3033.96491027     A.U. after   13 cycles
 Normal termination of Gaussian 16 at Wed Feb 12 04:56:08 2020.
 SCF Done:  E(UM06L) =  -3034.18275912     A.U. after   17 cycles
 Normal termination of Gaussian 16 at Wed Feb 12 05:14:31 2020.
 Gaussian 16:  ES64L-G16RevA.03 25-Dec-2016

                         Standard orientation:
 ---------------------------------------------------------------------
 Center     Atomic      Atomic             Coordinates (Angstroms)
 Number     Number       Type             X           Y           Z
 ---------------------------------------------------------------------
      1          8           0       -0.329729   -0.143438   -0.584738
      2          6           0       -1.292946   -1.050050   -0.501834
      3          6           0       -2.980259   -0.082765   -0.035643
      4          6           0       -2.237812    1.081862   -0.200150
      5          6           0       -2.116391    1.754596   -1.521157
      6         26           0        1.424389    0.054401    0.040622
      7         17           0        1.945713    2.047633   -0.750761
      8          6           0       -1.583026    1.772291    0.944268
      9         17           0        2.527525   -1.671661   -0.761419
     10         17           0        1.337465    0.027887    2.256976
     11          1           0       -3.593331   -0.364067   -0.889161
     12          1           0       -2.337326    2.436656    1.394574
     13          1           0       -1.244249    1.087947    1.723127
     14          1           0       -0.740286    2.384412    0.616566
     15          1           0       -2.581417    2.747013   -1.429224
     16          1           0       -1.060849    1.916851   -1.762555
     17          1           0       -2.615550    1.215050   -2.327716
     18          6           0       -3.551326   -0.504475    1.300818
     19          1           0       -4.445940    0.091636    1.520645
     20          1           0       -3.858049   -1.553264    1.284074
     21          1           0       -2.852278   -0.368537    2.128248
     22          6           0       -1.148296   -2.050717    0.621567
     23          1           0       -1.998167   -2.730819    0.697409
     24          1           0       -0.255052   -2.640253    0.371381
     25          1           0       -0.953486   -1.567489    1.579522
     26          6           0       -1.668403   -1.648758   -1.842685
     27          1           0       -0.796412   -2.231401   -2.167336
     28          1           0       -2.534194   -2.312530   -1.777015
     29          1           0       -1.840911   -0.875644   -2.593423
 ---------------------------------------------------------------------

 SCF Done:  E(UB97D3) =  -3034.60378399     A.U. after   15 cycles
 Normal termination of Gaussian 16 at Wed Feb 12 05:26:32 2020.
