 Gaussian 16, Revision A.03,

 --------------------------------
 #t pop=none jul-cc-pvdz upbe1pbe
 --------------------------------
 ------------------------
 theory_abbreviation pbe0
 ------------------------
 Symbolic Z-matrix:
 Charge =  0 Multiplicity = 6

 SCF Done:  E(UPBE1PBE) =  -3033.11938904     A.U. after   20 cycles
 Normal termination of Gaussian 16 at Tue Feb 11 23:38:19 2020.

 ---------------------------------------------------------------------
 #t pop=none jul-cc-pvdz guess=read upbe1pbe empiricaldispersion=gd3bj
 ---------------------------------------------------------------------
 -----------------------------
 theory_abbreviation pbe0_d3bj
 -----------------------------
 Symbolic Z-matrix:
 Charge =  0 Multiplicity = 6

 SCF Done:  E(UPBE1PBE) =  -3033.15711510     A.U. after    1 cycles
 Normal termination of Gaussian 16 at Tue Feb 11 23:39:31 2020.

 -----------------------------------------
 #t pop=none jul-cc-pvdz guess=read ub3lyp
 -----------------------------------------
 -------------------------
 theory_abbreviation b3lyp
 -------------------------
 Symbolic Z-matrix:
 Charge =  0 Multiplicity = 6

 SCF Done:  E(UB3LYP) =  -3034.33470481     A.U. after   13 cycles
 Normal termination of Gaussian 16 at Tue Feb 11 23:54:44 2020.

 -------------------------------------------------------------------
 #t pop=none jul-cc-pvdz guess=read ub3lyp empiricaldispersion=gd3bj
 -------------------------------------------------------------------
 ------------------------------
 theory_abbreviation b3lyp_d3bj
 ------------------------------
 Symbolic Z-matrix:
 Charge =  0 Multiplicity = 6

 SCF Done:  E(UB3LYP) =  -3034.40499450     A.U. after    1 cycles
 Normal termination of Gaussian 16 at Tue Feb 11 23:55:54 2020.

 ----------------------------------------
 #t pop=none jul-cc-pvdz guess=read ub97d
 ----------------------------------------
 ------------------------
 theory_abbreviation b97d
 ------------------------
 Symbolic Z-matrix:
 Charge =  0 Multiplicity = 6

 SCF Done:  E(UB97D) =  -3034.58866925     A.U. after   15 cycles

 ----------------------------------------------------------------
 #t pop=none jul-cc-pvdz guess=read ub97d empiricaldispersion=gd3
 ----------------------------------------------------------------
 -------------------------
 theory_abbreviation b97d3
 -------------------------
 Symbolic Z-matrix:
 Charge =  0 Multiplicity = 6

 SCF Done:  E(UB97D) =  -3034.58981056     A.U. after    1 cycles
 SCF Done:  E(UBHandHLYP) =  -3033.97574487     A.U. after   18 cycles
 SCF Done:  E(UBHandH) =  -3026.31963242     A.U. after   16 cycles
 SCF Done:  E(ULC-wPBE) =  -3033.45960624     A.U. after   19 cycles
 SCF Done:  E(UB-P86) =  -3034.64024054     A.U. after   16 cycles
 SCF Done:  E(UmPW1LYP) =  -3034.05284192     A.U. after   14 cycles
 SCF Done:  E(UmPW1PBE) =  -3033.89376655     A.U. after   14 cycles
 SCF Done:  E(UmPW3PBE) =  -3033.66658034     A.U. after   13 cycles
 SCF Done:  E(UM11) =  -3033.81741907     A.U. after   19 cycles
 SCF Done:  E(UN12SX) =  -3033.25855589     A.U. after   17 cycles
 SCF Done:  E(UMN12SX) =  -3033.65885980     A.U. after   16 cycles
 SCF Done:  E(UB1B95) =  -3034.38906113     A.U. after   15 cycles
 Normal termination of Gaussian 16 at Wed Feb 12 08:23:26 2020.
 SCF Done:  E(UB3PW91) =  -3033.98222421     A.U. after   15 cycles
 Normal termination of Gaussian 16 at Wed Feb 12 08:40:09 2020.
 SCF Done:  E(UM06L) =  -3034.20322127     A.U. after   17 cycles
 Normal termination of Gaussian 16 at Wed Feb 12 08:59:26 2020.
 Gaussian 16:  ES64L-G16RevA.03 25-Dec-2016

                         Standard orientation:
 ---------------------------------------------------------------------
 Center     Atomic      Atomic             Coordinates (Angstroms)
 Number     Number       Type             X           Y           Z
 ---------------------------------------------------------------------
      1          8           0       -0.292850   -0.208395   -0.780516
      2          6           0       -1.162269   -1.134729   -0.629992
      3          6           0       -2.902200   -0.201188    0.448730
      4          6           0       -2.512822    0.973749   -0.121523
      5          6           0       -2.965493    1.383627   -1.488977
      6         26           0        1.436344    0.122561    0.002979
      7         17           0        2.046071    2.046247   -0.836377
      8          6           0       -1.613268    1.956287    0.553357
      9         17           0        2.612287   -1.614184   -0.635967
     10         17           0        1.171452    0.175714    2.195648
     11          1           0       -3.651855   -0.781365   -0.086105
     12          1           0       -2.193518    2.858586    0.792442
     13          1           0       -1.164030    1.586207    1.473378
     14          1           0       -0.813162    2.272001   -0.126229
     15          1           0       -3.414784    2.383328   -1.436103
     16          1           0       -2.102358    1.469166   -2.162162
     17          1           0       -3.701437    0.700815   -1.919114
     18          6           0       -2.782655   -0.506299    1.923581
     19          1           0       -3.566217    0.033163    2.471132
     20          1           0       -2.927501   -1.570379    2.124487
     21          1           0       -1.821025   -0.208708    2.347745
     22          6           0       -0.910920   -2.210311    0.394846
     23          1           0       -1.779100   -2.853175    0.546561
     24          1           0       -0.096496   -2.819067   -0.023944
     25          1           0       -0.558210   -1.807811    1.343505
     26          6           0       -1.868649   -1.586225   -1.886472
     27          1           0       -1.155216   -2.247333   -2.397511
     28          1           0       -2.773999   -2.159701   -1.680582
     29          1           0       -2.080373   -0.756836   -2.558302
 ---------------------------------------------------------------------

 SCF Done:  E(UB97D3) =  -3034.62522091     A.U. after   16 cycles
 Normal termination of Gaussian 16 at Wed Feb 12 09:13:08 2020.
