 Gaussian 16, Revision A.03,

 --------------------------------
 #t pop=none jul-cc-pvdz upbe1pbe
 --------------------------------
 ------------------------
 theory_abbreviation pbe0
 ------------------------
 Symbolic Z-matrix:
 Charge =  0 Multiplicity = 6

 SCF Done:  E(UPBE1PBE) =  -3033.10678338     A.U. after   21 cycles
 Normal termination of Gaussian 16 at Tue Feb 11 13:57:49 2020.

 ---------------------------------------------------------------------
 #t pop=none jul-cc-pvdz guess=read upbe1pbe empiricaldispersion=gd3bj
 ---------------------------------------------------------------------
 -----------------------------
 theory_abbreviation pbe0_d3bj
 -----------------------------
 Symbolic Z-matrix:
 Charge =  0 Multiplicity = 6

 SCF Done:  E(UPBE1PBE) =  -3033.14351879     A.U. after    1 cycles
 Normal termination of Gaussian 16 at Tue Feb 11 13:59:01 2020.

 -----------------------------------------
 #t pop=none jul-cc-pvdz guess=read ub3lyp
 -----------------------------------------
 -------------------------
 theory_abbreviation b3lyp
 -------------------------
 Symbolic Z-matrix:
 Charge =  0 Multiplicity = 6

 SCF Done:  E(UB3LYP) =  -3034.31837006     A.U. after   15 cycles
 Normal termination of Gaussian 16 at Tue Feb 11 14:14:33 2020.

 -------------------------------------------------------------------
 #t pop=none jul-cc-pvdz guess=read ub3lyp empiricaldispersion=gd3bj
 -------------------------------------------------------------------
 ------------------------------
 theory_abbreviation b3lyp_d3bj
 ------------------------------
 Symbolic Z-matrix:
 Charge =  0 Multiplicity = 6

 SCF Done:  E(UB3LYP) =  -3034.38687341     A.U. after    1 cycles
 Normal termination of Gaussian 16 at Tue Feb 11 14:15:43 2020.

 ----------------------------------------
 #t pop=none jul-cc-pvdz guess=read ub97d
 ----------------------------------------
 ------------------------
 theory_abbreviation b97d
 ------------------------
 Symbolic Z-matrix:
 Charge =  0 Multiplicity = 6

 SCF Done:  E(UB97D) =  -3034.56985983     A.U. after   16 cycles

 ----------------------------------------------------------------
 #t pop=none jul-cc-pvdz guess=read ub97d empiricaldispersion=gd3
 ----------------------------------------------------------------
 -------------------------
 theory_abbreviation b97d3
 -------------------------
 Symbolic Z-matrix:
 Charge =  0 Multiplicity = 6

 SCF Done:  E(UB97D) =  -3034.57046086     A.U. after    1 cycles
 SCF Done:  E(UBHandHLYP) =  -3033.96156360     A.U. after   17 cycles
 SCF Done:  E(UBHandH) =  -3026.31126965     A.U. after   14 cycles
 SCF Done:  E(ULC-wPBE) =  -3033.44836474     A.U. after   17 cycles
 SCF Done:  E(UB-P86) =  -3034.62418954     A.U. after   18 cycles
 SCF Done:  E(UmPW1LYP) =  -3034.03655047     A.U. after   15 cycles
 SCF Done:  E(UmPW1PBE) =  -3033.88113108     A.U. after   15 cycles
 SCF Done:  E(UmPW3PBE) =  -3033.65327731     A.U. after   15 cycles
 SCF Done:  E(UM11) =  -3033.80284441     A.U. after   18 cycles
 SCF Done:  E(UN12SX) =  -3033.24666484     A.U. after   17 cycles
 SCF Done:  E(UMN12SX) =  -3033.64316189     A.U. after   16 cycles
 SCF Done:  E(UB1B95) =  -3034.37362932     A.U. after   16 cycles
 Normal termination of Gaussian 16 at Tue Feb 11 23:35:26 2020.
 SCF Done:  E(UB3PW91) =  -3033.96852389     A.U. after   15 cycles
 Normal termination of Gaussian 16 at Tue Feb 11 23:51:16 2020.
 SCF Done:  E(UM06L) =  -3034.18571716     A.U. after   17 cycles
 Normal termination of Gaussian 16 at Wed Feb 12 00:10:36 2020.
 Gaussian 16:  ES64L-G16RevA.03 25-Dec-2016

                         Standard orientation:
 ---------------------------------------------------------------------
 Center     Atomic      Atomic             Coordinates (Angstroms)
 Number     Number       Type             X           Y           Z
 ---------------------------------------------------------------------
      1          8           0       -0.348555   -0.158917   -0.558172
      2          6           0       -1.255267   -1.140285   -0.396040
      3          6           0       -2.571364   -0.451959    0.529485
      4          6           0       -2.644123    0.837504   -0.068245
      5          6           0       -3.455833    1.072908   -1.289278
      6         26           0        1.418467    0.153140   -0.058459
      7         17           0        1.696634    2.223802   -0.796677
      8          6           0       -1.865252    1.971014    0.429796
      9         17           0        2.676770   -1.400858   -0.969995
     10         17           0        1.452987    0.105503    2.164658
     11          1           0       -3.411802   -1.084926    0.236123
     12          1           0       -2.245528    2.936017    0.087947
     13          1           0       -1.698340    1.960193    1.507551
     14          1           0       -0.864919    1.830667   -0.032357
     15          1           0       -4.204491    1.842952   -1.054162
     16          1           0       -2.824778    1.500137   -2.080612
     17          1           0       -3.967527    0.183021   -1.654420
     18          6           0       -2.278609   -0.505241    2.029259
     19          1           0       -3.004845    0.105976    2.575935
     20          1           0       -2.369430   -1.529690    2.393959
     21          1           0       -1.273524   -0.149299    2.265981
     22          6           0       -0.755492   -2.333778    0.423484
     23          1           0       -1.547522   -3.066371    0.605349
     24          1           0        0.031635   -2.810147   -0.171693
     25          1           0       -0.311778   -2.024566    1.369571
     26          6           0       -1.798085   -1.611922   -1.749091
     27          1           0       -0.988686   -2.158584   -2.243118
     28          1           0       -2.656114   -2.283761   -1.644965
     29          1           0       -2.058539   -0.774971   -2.397755
 ---------------------------------------------------------------------

 SCF Done:  E(UB97D3) =  -3034.60485669     A.U. after   16 cycles
 Normal termination of Gaussian 16 at Wed Feb 12 00:23:02 2020.
