 Gaussian 16, Revision A.03,

 --------------------------------
 #t pop=none jul-cc-pvdz upbe1pbe
 --------------------------------
 ------------------------
 theory_abbreviation pbe0
 ------------------------
 Symbolic Z-matrix:
 Charge =  0 Multiplicity = 6

 SCF Done:  E(UPBE1PBE) =  -3033.10469463     A.U. after   20 cycles
 Normal termination of Gaussian 16 at Tue Feb 11 13:55:31 2020.

 ---------------------------------------------------------------------
 #t pop=none jul-cc-pvdz guess=read upbe1pbe empiricaldispersion=gd3bj
 ---------------------------------------------------------------------
 -----------------------------
 theory_abbreviation pbe0_d3bj
 -----------------------------
 Symbolic Z-matrix:
 Charge =  0 Multiplicity = 6

 SCF Done:  E(UPBE1PBE) =  -3033.14213595     A.U. after    1 cycles
 Normal termination of Gaussian 16 at Tue Feb 11 13:56:48 2020.

 -----------------------------------------
 #t pop=none jul-cc-pvdz guess=read ub3lyp
 -----------------------------------------
 -------------------------
 theory_abbreviation b3lyp
 -------------------------
 Symbolic Z-matrix:
 Charge =  0 Multiplicity = 6

 SCF Done:  E(UB3LYP) =  -3034.31597645     A.U. after   13 cycles
 Normal termination of Gaussian 16 at Tue Feb 11 14:10:44 2020.

 -------------------------------------------------------------------
 #t pop=none jul-cc-pvdz guess=read ub3lyp empiricaldispersion=gd3bj
 -------------------------------------------------------------------
 ------------------------------
 theory_abbreviation b3lyp_d3bj
 ------------------------------
 Symbolic Z-matrix:
 Charge =  0 Multiplicity = 6

 SCF Done:  E(UB3LYP) =  -3034.38580200     A.U. after    1 cycles
 Normal termination of Gaussian 16 at Tue Feb 11 14:12:21 2020.

 ----------------------------------------
 #t pop=none jul-cc-pvdz guess=read ub97d
 ----------------------------------------
 ------------------------
 theory_abbreviation b97d
 ------------------------
 Symbolic Z-matrix:
 Charge =  0 Multiplicity = 6

 SCF Done:  E(UB97D) =  -3034.56626588     A.U. after   16 cycles

 ----------------------------------------------------------------
 #t pop=none jul-cc-pvdz guess=read ub97d empiricaldispersion=gd3
 ----------------------------------------------------------------
 -------------------------
 theory_abbreviation b97d3
 -------------------------
 Symbolic Z-matrix:
 Charge =  0 Multiplicity = 6

 SCF Done:  E(UB97D) =  -3034.56701250     A.U. after    1 cycles
 SCF Done:  E(UBHandHLYP) =  -3033.96224751     A.U. after   15 cycles
 SCF Done:  E(UBHandH) =  -3026.31220787     A.U. after   13 cycles
 SCF Done:  E(ULC-wPBE) =  -3033.45090221     A.U. after   16 cycles
 SCF Done:  E(UB-P86) =  -3034.62179940     A.U. after   16 cycles
 SCF Done:  E(UmPW1LYP) =  -3034.03483122     A.U. after   13 cycles
 SCF Done:  E(UmPW1PBE) =  -3033.87891671     A.U. after   13 cycles
 SCF Done:  E(UmPW3PBE) =  -3033.65063421     A.U. after   13 cycles
 SCF Done:  E(UM11) =  -3033.80276294     A.U. after   16 cycles
 SCF Done:  E(UN12SX) =  -3033.24477647     A.U. after   15 cycles
 SCF Done:  E(UMN12SX) =  -3033.64242108     A.U. after   15 cycles
 SCF Done:  E(UB1B95) =  -3034.37098746     A.U. after   14 cycles
 Normal termination of Gaussian 16 at Tue Feb 11 22:16:19 2020.
 SCF Done:  E(UB3PW91) =  -3033.96576720     A.U. after   13 cycles
 Normal termination of Gaussian 16 at Tue Feb 11 22:30:16 2020.
 SCF Done:  E(UM06L) =  -3034.18304723     A.U. after   18 cycles
 Normal termination of Gaussian 16 at Tue Feb 11 22:51:14 2020.
 Gaussian 16:  ES64L-G16RevA.03 25-Dec-2016

                         Standard orientation:
 ---------------------------------------------------------------------
 Center     Atomic      Atomic             Coordinates (Angstroms)
 Number     Number       Type             X           Y           Z
 ---------------------------------------------------------------------
      1          8           0       -0.308594   -0.329598   -0.722366
      2          6           0       -1.384113   -1.213530   -0.476706
      3          6           0       -2.523054   -0.364855    0.259885
      4          6           0       -2.241891    1.049761   -0.120503
      5          6           0       -2.631881    1.554424   -1.453327
      6         26           0        1.340983    0.066933   -0.031558
      7         17           0        1.563040    2.196599   -0.727469
      8          6           0       -1.555694    1.987167    0.760581
      9         17           0        2.860125   -1.341400   -0.750663
     10         17           0        1.123461    0.054165    2.194505
     11          1           0       -3.476202   -0.645080   -0.205735
     12          1           0       -2.142330    2.911700    0.851781
     13          1           0       -1.276760    1.592035    1.733184
     14          1           0       -0.628655    2.302572    0.229228
     15          1           0       -2.830317    2.629568   -1.447168
     16          1           0       -1.733062    1.402118   -2.074811
     17          1           0       -3.456416    1.000920   -1.904289
     18          6           0       -2.625908   -0.580158    1.775862
     19          1           0       -3.353899    0.108884    2.217649
     20          1           0       -2.972372   -1.597034    1.974094
     21          1           0       -1.665982   -0.445565    2.278071
     22          6           0       -0.926962   -2.409073    0.360741
     23          1           0       -1.739959   -3.121639    0.535151
     24          1           0       -0.137087   -2.918289   -0.201508
     25          1           0       -0.506132   -2.099195    1.318198
     26          6           0       -1.899338   -1.714727   -1.832467
     27          1           0       -1.084106   -2.239290   -2.338322
     28          1           0       -2.740673   -2.405561   -1.707565
     29          1           0       -2.212448   -0.892867   -2.481273
 ---------------------------------------------------------------------

 SCF Done:  E(UB97D3) =  -3034.60193564     A.U. after   16 cycles
 Normal termination of Gaussian 16 at Tue Feb 11 23:05:53 2020.
