 Gaussian 16, Revision A.03,

 --------------------------------
 #t pop=none jul-cc-pvdz upbe1pbe
 --------------------------------
 ------------------------
 theory_abbreviation pbe0
 ------------------------
 Symbolic Z-matrix:
 Charge =  0 Multiplicity = 6

 SCF Done:  E(UPBE1PBE) =  -3033.11856836     A.U. after   21 cycles
 Normal termination of Gaussian 16 at Tue Feb 11 23:38:52 2020.

 ---------------------------------------------------------------------
 #t pop=none jul-cc-pvdz guess=read upbe1pbe empiricaldispersion=gd3bj
 ---------------------------------------------------------------------
 -----------------------------
 theory_abbreviation pbe0_d3bj
 -----------------------------
 Symbolic Z-matrix:
 Charge =  0 Multiplicity = 6

 SCF Done:  E(UPBE1PBE) =  -3033.15579576     A.U. after    1 cycles
 Normal termination of Gaussian 16 at Tue Feb 11 23:40:04 2020.

 -----------------------------------------
 #t pop=none jul-cc-pvdz guess=read ub3lyp
 -----------------------------------------
 -------------------------
 theory_abbreviation b3lyp
 -------------------------
 Symbolic Z-matrix:
 Charge =  0 Multiplicity = 6

 SCF Done:  E(UB3LYP) =  -3034.33392891     A.U. after   14 cycles
 Normal termination of Gaussian 16 at Tue Feb 11 23:53:58 2020.

 -------------------------------------------------------------------
 #t pop=none jul-cc-pvdz guess=read ub3lyp empiricaldispersion=gd3bj
 -------------------------------------------------------------------
 ------------------------------
 theory_abbreviation b3lyp_d3bj
 ------------------------------
 Symbolic Z-matrix:
 Charge =  0 Multiplicity = 6

 SCF Done:  E(UB3LYP) =  -3034.40325898     A.U. after    1 cycles
 Normal termination of Gaussian 16 at Tue Feb 11 23:55:14 2020.

 ----------------------------------------
 #t pop=none jul-cc-pvdz guess=read ub97d
 ----------------------------------------
 ------------------------
 theory_abbreviation b97d
 ------------------------
 Symbolic Z-matrix:
 Charge =  0 Multiplicity = 6

 SCF Done:  E(UB97D) =  -3034.58756900     A.U. after   15 cycles

 ----------------------------------------------------------------
 #t pop=none jul-cc-pvdz guess=read ub97d empiricaldispersion=gd3
 ----------------------------------------------------------------
 -------------------------
 theory_abbreviation b97d3
 -------------------------
 Symbolic Z-matrix:
 Charge =  0 Multiplicity = 6

 SCF Done:  E(UB97D) =  -3034.58865693     A.U. after    1 cycles
 SCF Done:  E(UBHandHLYP) =  -3033.97395189     A.U. after   18 cycles
 SCF Done:  E(UBHandH) =  -3026.31771953     A.U. after   16 cycles
 SCF Done:  E(ULC-wPBE) =  -3033.45740796     A.U. after   19 cycles
 SCF Done:  E(UB-P86) =  -3034.63921727     A.U. after   17 cycles
 SCF Done:  E(UmPW1LYP) =  -3034.05185821     A.U. after   15 cycles
 SCF Done:  E(UmPW1PBE) =  -3033.89301935     A.U. after   16 cycles
 SCF Done:  E(UmPW3PBE) =  -3033.66594210     A.U. after   12 cycles
 SCF Done:  E(UM11) =  -3033.81556775     A.U. after   19 cycles
 SCF Done:  E(UN12SX) =  -3033.25783213     A.U. after   17 cycles
 SCF Done:  E(UMN12SX) =  -3033.65658925     A.U. after   17 cycles
 SCF Done:  E(UB1B95) =  -3034.38740260     A.U. after   15 cycles
 Normal termination of Gaussian 16 at Wed Feb 12 08:23:31 2020.
 SCF Done:  E(UB3PW91) =  -3033.98161041     A.U. after   15 cycles
 Normal termination of Gaussian 16 at Wed Feb 12 08:38:23 2020.
 SCF Done:  E(UM06L) =  -3034.20068072     A.U. after   18 cycles
 Normal termination of Gaussian 16 at Wed Feb 12 08:57:57 2020.
 Gaussian 16:  ES64L-G16RevA.03 25-Dec-2016

                         Standard orientation:
 ---------------------------------------------------------------------
 Center     Atomic      Atomic             Coordinates (Angstroms)
 Number     Number       Type             X           Y           Z
 ---------------------------------------------------------------------
      1          8           0       -0.278278   -0.237399   -0.735309
      2          6           0       -1.161222   -1.157022   -0.569653
      3          6           0       -2.765280   -0.325680    0.595840
      4          6           0       -2.694882    0.882097   -0.050297
      5          6           0       -3.451697    1.147697   -1.314247
      6         26           0        1.462036    0.152855   -0.033404
      7         17           0        1.969334    2.069722   -0.960516
      8          6           0       -1.798217    1.981556    0.399824
      9         17           0        2.677113   -1.565152   -0.647246
     10         17           0        1.264883    0.305218    2.159917
     11          1           0       -3.514411   -1.023497    0.224548
     12          1           0       -2.290500    2.954837    0.296444
     13          1           0       -1.429985    1.864620    1.418527
     14          1           0       -0.924939    2.002158   -0.270686
     15          1           0       -4.126494    1.998468   -1.151682
     16          1           0       -2.770216    1.446599   -2.121715
     17          1           0       -4.051789    0.295515   -1.639159
     18          6           0       -2.401478   -0.491779    2.057597
     19          1           0       -3.104168    0.083231    2.672998
     20          1           0       -2.482785   -1.535623    2.366749
     21          1           0       -1.393098   -0.146180    2.292719
     22          6           0       -0.829849   -2.288558    0.378962
     23          1           0       -1.687588   -2.932442    0.581885
     24          1           0       -0.062940   -2.880998   -0.138643
     25          1           0       -0.390456   -1.932321    1.310013
     26          6           0       -1.889504   -1.573189   -1.831287
     27          1           0       -1.195212   -2.228370   -2.373380
     28          1           0       -2.801949   -2.138296   -1.630618
     29          1           0       -2.099995   -0.719882   -2.474081
 ---------------------------------------------------------------------

 SCF Done:  E(UB97D3) =  -3034.62384734     A.U. after   15 cycles
 Normal termination of Gaussian 16 at Wed Feb 12 09:09:58 2020.
