 Gaussian 16, Revision A.03,

 --------------------------------
 #t pop=none jul-cc-pvdz upbe1pbe
 --------------------------------
 ------------------------
 theory_abbreviation pbe0
 ------------------------
 Symbolic Z-matrix:
 Charge =  0 Multiplicity = 6

 SCF Done:  E(UPBE1PBE) =  -3033.10519702     A.U. after   21 cycles
 Normal termination of Gaussian 16 at Tue Feb 11 14:46:13 2020.

 ---------------------------------------------------------------------
 #t pop=none jul-cc-pvdz guess=read upbe1pbe empiricaldispersion=gd3bj
 ---------------------------------------------------------------------
 -----------------------------
 theory_abbreviation pbe0_d3bj
 -----------------------------
 Symbolic Z-matrix:
 Charge =  0 Multiplicity = 6

 SCF Done:  E(UPBE1PBE) =  -3033.14242738     A.U. after    1 cycles
 Normal termination of Gaussian 16 at Tue Feb 11 14:47:49 2020.

 -----------------------------------------
 #t pop=none jul-cc-pvdz guess=read ub3lyp
 -----------------------------------------
 -------------------------
 theory_abbreviation b3lyp
 -------------------------
 Symbolic Z-matrix:
 Charge =  0 Multiplicity = 6

 SCF Done:  E(UB3LYP) =  -3034.31698600     A.U. after   13 cycles
 Normal termination of Gaussian 16 at Tue Feb 11 15:01:33 2020.

 -------------------------------------------------------------------
 #t pop=none jul-cc-pvdz guess=read ub3lyp empiricaldispersion=gd3bj
 -------------------------------------------------------------------
 ------------------------------
 theory_abbreviation b3lyp_d3bj
 ------------------------------
 Symbolic Z-matrix:
 Charge =  0 Multiplicity = 6

 SCF Done:  E(UB3LYP) =  -3034.38638465     A.U. after    1 cycles
 Normal termination of Gaussian 16 at Tue Feb 11 15:03:00 2020.

 ----------------------------------------
 #t pop=none jul-cc-pvdz guess=read ub97d
 ----------------------------------------
 ------------------------
 theory_abbreviation b97d
 ------------------------
 Symbolic Z-matrix:
 Charge =  0 Multiplicity = 6

 SCF Done:  E(UB97D) =  -3034.56780085     A.U. after   16 cycles

 ----------------------------------------------------------------
 #t pop=none jul-cc-pvdz guess=read ub97d empiricaldispersion=gd3
 ----------------------------------------------------------------
 -------------------------
 theory_abbreviation b97d3
 -------------------------
 Symbolic Z-matrix:
 Charge =  0 Multiplicity = 6

 SCF Done:  E(UB97D) =  -3034.56821429     A.U. after    1 cycles
 SCF Done:  E(UBHandHLYP) =  -3033.96242502     A.U. after   17 cycles
 SCF Done:  E(UBHandH) =  -3026.31100994     A.U. after   13 cycles
 SCF Done:  E(ULC-wPBE) =  -3033.44912913     A.U. after   17 cycles
 SCF Done:  E(UB-P86) =  -3034.62170265     A.U. after   16 cycles
 SCF Done:  E(UmPW1LYP) =  -3034.03575442     A.U. after   13 cycles
 SCF Done:  E(UmPW1PBE) =  -3033.87948014     A.U. after   13 cycles
 SCF Done:  E(UmPW3PBE) =  -3033.65129260     A.U. after   13 cycles
 SCF Done:  E(UM11) =  -3033.80375430     A.U. after   16 cycles
 SCF Done:  E(UN12SX) =  -3033.24539174     A.U. after   15 cycles
 SCF Done:  E(UMN12SX) =  -3033.64366589     A.U. after   16 cycles
 SCF Done:  E(UB1B95) =  -3034.37229082     A.U. after   15 cycles
 Normal termination of Gaussian 16 at Tue Feb 11 23:35:09 2020.
 SCF Done:  E(UB3PW91) =  -3033.96652151     A.U. after   13 cycles
 Normal termination of Gaussian 16 at Tue Feb 11 23:49:41 2020.
 SCF Done:  E(UM06L) =  -3034.18401912     A.U. after   18 cycles
 Normal termination of Gaussian 16 at Wed Feb 12 00:12:48 2020.
 Gaussian 16:  ES64L-G16RevA.03 25-Dec-2016

                         Standard orientation:
 ---------------------------------------------------------------------
 Center     Atomic      Atomic             Coordinates (Angstroms)
 Number     Number       Type             X           Y           Z
 ---------------------------------------------------------------------
      1          8           0       -0.315428   -0.235227   -0.708964
      2          6           0       -1.319063   -1.149018   -0.519885
      3          6           0       -2.646531   -0.334686    0.278357
      4          6           0       -2.344738    1.009673   -0.130502
      5          6           0       -2.731385    1.525432   -1.459893
      6         26           0        1.369690    0.099538   -0.027657
      7         17           0        1.768056    2.156644   -0.751334
      8          6           0       -1.597234    1.932030    0.738324
      9         17           0        2.748033   -1.469125   -0.713821
     10         17           0        1.135581    0.081786    2.205586
     11          1           0       -3.525057   -0.723138   -0.240873
     12          1           0       -2.363432    2.478774    1.318252
     13          1           0       -0.952455    1.424203    1.456997
     14          1           0       -1.024139    2.664485    0.164024
     15          1           0       -3.039376    2.574825   -1.386998
     16          1           0       -1.806254    1.522996   -2.058565
     17          1           0       -3.496414    0.933811   -1.962430
     18          6           0       -2.707661   -0.597633    1.782790
     19          1           0       -3.480391    0.025900    2.246399
     20          1           0       -2.972044   -1.640885    1.966207
     21          1           0       -1.757375   -0.398070    2.281866
     22          6           0       -0.903749   -2.328577    0.352912
     23          1           0       -1.717116   -3.046327    0.493879
     24          1           0       -0.085042   -2.829664   -0.177154
     25          1           0       -0.519495   -2.007835    1.321335
     26          6           0       -1.845888   -1.635257   -1.871102
     27          1           0       -1.022084   -2.156378   -2.369425
     28          1           0       -2.684445   -2.329391   -1.756589
     29          1           0       -2.144278   -0.809436   -2.519431
 ---------------------------------------------------------------------

 SCF Done:  E(UB97D3) =  -3034.60284065     A.U. after   15 cycles
 Normal termination of Gaussian 16 at Wed Feb 12 00:24:48 2020.
