 Gaussian 16, Revision A.03,

 --------------------------------
 #t pop=none jul-cc-pvdz upbe1pbe
 --------------------------------
 ------------------------
 theory_abbreviation pbe0
 ------------------------
 Symbolic Z-matrix:
 Charge =  0 Multiplicity = 6

 SCF Done:  E(UPBE1PBE) =  -3033.12956696     A.U. after   20 cycles
 Normal termination of Gaussian 16 at Tue Feb 11 13:59:09 2020.

 ---------------------------------------------------------------------
 #t pop=none jul-cc-pvdz guess=read upbe1pbe empiricaldispersion=gd3bj
 ---------------------------------------------------------------------
 -----------------------------
 theory_abbreviation pbe0_d3bj
 -----------------------------
 Symbolic Z-matrix:
 Charge =  0 Multiplicity = 6

 SCF Done:  E(UPBE1PBE) =  -3033.16652048     A.U. after    1 cycles
 Normal termination of Gaussian 16 at Tue Feb 11 14:00:20 2020.

 -----------------------------------------
 #t pop=none jul-cc-pvdz guess=read ub3lyp
 -----------------------------------------
 -------------------------
 theory_abbreviation b3lyp
 -------------------------
 Symbolic Z-matrix:
 Charge =  0 Multiplicity = 6

 SCF Done:  E(UB3LYP) =  -3034.34691826     A.U. after   13 cycles
 Normal termination of Gaussian 16 at Tue Feb 11 14:14:05 2020.

 -------------------------------------------------------------------
 #t pop=none jul-cc-pvdz guess=read ub3lyp empiricaldispersion=gd3bj
 -------------------------------------------------------------------
 ------------------------------
 theory_abbreviation b3lyp_d3bj
 ------------------------------
 Symbolic Z-matrix:
 Charge =  0 Multiplicity = 6

 SCF Done:  E(UB3LYP) =  -3034.41549763     A.U. after    1 cycles
 Normal termination of Gaussian 16 at Tue Feb 11 14:15:15 2020.

 ----------------------------------------
 #t pop=none jul-cc-pvdz guess=read ub97d
 ----------------------------------------
 ------------------------
 theory_abbreviation b97d
 ------------------------
 Symbolic Z-matrix:
 Charge =  0 Multiplicity = 6

 SCF Done:  E(UB97D) =  -3034.59822754     A.U. after   15 cycles

 ----------------------------------------------------------------
 #t pop=none jul-cc-pvdz guess=read ub97d empiricaldispersion=gd3
 ----------------------------------------------------------------
 -------------------------
 theory_abbreviation b97d3
 -------------------------
 Symbolic Z-matrix:
 Charge =  0 Multiplicity = 6

 SCF Done:  E(UB97D) =  -3034.60019354     A.U. after    1 cycles
 SCF Done:  E(UBHandHLYP) =  -3033.98888791     A.U. after   18 cycles
 SCF Done:  E(UBHandH) =  -3026.32775541     A.U. after   14 cycles
 SCF Done:  E(ULC-wPBE) =  -3033.47110836     A.U. after   17 cycles
 SCF Done:  E(UB-P86) =  -3034.64851379     A.U. after   17 cycles
 SCF Done:  E(UmPW1LYP) =  -3034.06522669     A.U. after   13 cycles
 SCF Done:  E(UmPW1PBE) =  -3033.90404956     A.U. after   14 cycles
 SCF Done:  E(UmPW3PBE) =  -3033.67692839     A.U. after   13 cycles
 SCF Done:  E(UM11) =  -3033.82841803     A.U. after   17 cycles
 SCF Done:  E(UN12SX) =  -3033.26835932     A.U. after   17 cycles
 SCF Done:  E(UMN12SX) =  -3033.67067583     A.U. after   16 cycles
 SCF Done:  E(UB1B95) =  -3034.40029841     A.U. after   14 cycles
 Normal termination of Gaussian 16 at Tue Feb 11 22:34:31 2020.
 SCF Done:  E(UB3PW91) =  -3033.99297905     A.U. after   15 cycles
 Normal termination of Gaussian 16 at Tue Feb 11 22:50:07 2020.
 SCF Done:  E(UM06L) =  -3034.21564225     A.U. after   17 cycles
 Normal termination of Gaussian 16 at Tue Feb 11 23:09:37 2020.
 Gaussian 16:  ES64L-G16RevA.03 25-Dec-2016

                         Standard orientation:
 ---------------------------------------------------------------------
 Center     Atomic      Atomic             Coordinates (Angstroms)
 Number     Number       Type             X           Y           Z
 ---------------------------------------------------------------------
      1          8           0        0.273219    0.263252   -0.764941
      2          6           0        1.057491    1.234879   -0.627402
      3          6           0        3.218493   -0.014057    0.262951
      4          6           0        2.467870   -1.022869   -0.226959
      5          6           0        2.573764   -1.454875   -1.662765
      6         26           0       -1.473357   -0.117593    0.051428
      7         17           0       -2.106994   -1.975098   -0.889640
      8          6           0        1.580843   -1.891741    0.616816
      9         17           0       -2.570166    1.684724   -0.543141
     10         17           0       -1.240330   -0.236669    2.229706
     11          1           0        3.899286    0.483119   -0.427878
     12          1           0        2.111913   -2.825086    0.850225
     13          1           0        1.283229   -1.434662    1.560766
     14          1           0        0.677444   -2.180692    0.070146
     15          1           0        2.881396   -2.507647   -1.708432
     16          1           0        1.597074   -1.394971   -2.158379
     17          1           0        3.305006   -0.867735   -2.225856
     18          6           0        3.379771    0.368653    1.708462
     19          1           0        4.281917   -0.101204    2.123735
     20          1           0        3.508235    1.449761    1.829717
     21          1           0        2.536756    0.055531    2.329677
     22          6           0        0.980644    2.113285    0.580851
     23          1           0        1.874114    2.725819    0.703590
     24          1           0        0.121305    2.781009    0.415933
     25          1           0        0.774229    1.538302    1.484133
     26          6           0        1.766397    1.748103   -1.843436
     27          1           0        1.089188    2.492114   -2.289508
     28          1           0        2.702777    2.250581   -1.597544
     29          1           0        1.923346    0.958620   -2.576764
 ---------------------------------------------------------------------

 SCF Done:  E(UB97D3) =  -3034.63499733     A.U. after   16 cycles
 Normal termination of Gaussian 16 at Tue Feb 11 23:22:20 2020.
