 Gaussian 16, Revision A.03,

 --------------------------------
 #t pop=none jul-cc-pvdz upbe1pbe
 --------------------------------
 ------------------------
 theory_abbreviation pbe0
 ------------------------
 Symbolic Z-matrix:
 Charge =  0 Multiplicity = 6

 SCF Done:  E(UPBE1PBE) =  -3033.11589406     A.U. after   21 cycles
 Normal termination of Gaussian 16 at Tue Feb 11 13:59:05 2020.

 ---------------------------------------------------------------------
 #t pop=none jul-cc-pvdz guess=read upbe1pbe empiricaldispersion=gd3bj
 ---------------------------------------------------------------------
 -----------------------------
 theory_abbreviation pbe0_d3bj
 -----------------------------
 Symbolic Z-matrix:
 Charge =  0 Multiplicity = 6

 SCF Done:  E(UPBE1PBE) =  -3033.15207328     A.U. after    1 cycles
 Normal termination of Gaussian 16 at Tue Feb 11 14:00:17 2020.

 -----------------------------------------
 #t pop=none jul-cc-pvdz guess=read ub3lyp
 -----------------------------------------
 -------------------------
 theory_abbreviation b3lyp
 -------------------------
 Symbolic Z-matrix:
 Charge =  0 Multiplicity = 6

 SCF Done:  E(UB3LYP) =  -3034.33035986     A.U. after   15 cycles
 Normal termination of Gaussian 16 at Tue Feb 11 14:16:02 2020.

 -------------------------------------------------------------------
 #t pop=none jul-cc-pvdz guess=read ub3lyp empiricaldispersion=gd3bj
 -------------------------------------------------------------------
 ------------------------------
 theory_abbreviation b3lyp_d3bj
 ------------------------------
 Symbolic Z-matrix:
 Charge =  0 Multiplicity = 6

 SCF Done:  E(UB3LYP) =  -3034.39780934     A.U. after    1 cycles
 Normal termination of Gaussian 16 at Tue Feb 11 14:17:12 2020.

 ----------------------------------------
 #t pop=none jul-cc-pvdz guess=read ub97d
 ----------------------------------------
 ------------------------
 theory_abbreviation b97d
 ------------------------
 Symbolic Z-matrix:
 Charge =  0 Multiplicity = 6

 SCF Done:  E(UB97D) =  -3034.58295432     A.U. after   17 cycles

 ----------------------------------------------------------------
 #t pop=none jul-cc-pvdz guess=read ub97d empiricaldispersion=gd3
 ----------------------------------------------------------------
 -------------------------
 theory_abbreviation b97d3
 -------------------------
 Symbolic Z-matrix:
 Charge =  0 Multiplicity = 6

 SCF Done:  E(UB97D) =  -3034.58355264     A.U. after    1 cycles
 SCF Done:  E(UBHandHLYP) =  -3033.96986945     A.U. after   17 cycles
 SCF Done:  E(UBHandH) =  -3026.31515569     A.U. after   16 cycles
 SCF Done:  E(ULC-wPBE) =  -3033.45337679     A.U. after   18 cycles
 SCF Done:  E(UB-P86) =  -3034.63497697     A.U. after   17 cycles
 SCF Done:  E(UmPW1LYP) =  -3034.04804312     A.U. after   15 cycles
 SCF Done:  E(UmPW1PBE) =  -3033.89045424     A.U. after   16 cycles
 SCF Done:  E(UmPW3PBE) =  -3033.66331416     A.U. after   15 cycles
 SCF Done:  E(UM11) =  -3033.81159922     A.U. after   19 cycles
 SCF Done:  E(UN12SX) =  -3033.25531590     A.U. after   17 cycles
 SCF Done:  E(UMN12SX) =  -3033.65168365     A.U. after   17 cycles
 SCF Done:  E(UB1B95) =  -3034.38366139     A.U. after   16 cycles
 Normal termination of Gaussian 16 at Tue Feb 11 23:08:44 2020.
 SCF Done:  E(UB3PW91) =  -3033.97892719     A.U. after   15 cycles
 Normal termination of Gaussian 16 at Tue Feb 11 23:23:52 2020.
 SCF Done:  E(UM06L) =  -3034.19557294     A.U. after   16 cycles
 Normal termination of Gaussian 16 at Tue Feb 11 23:41:18 2020.
 Gaussian 16:  ES64L-G16RevA.03 25-Dec-2016

                         Standard orientation:
 ---------------------------------------------------------------------
 Center     Atomic      Atomic             Coordinates (Angstroms)
 Number     Number       Type             X           Y           Z
 ---------------------------------------------------------------------
      1          8           0       -0.325371   -0.157212   -0.479904
      2          6           0       -1.178182   -1.120465   -0.289393
      3          6           0       -2.648672   -0.316878    0.802353
      4          6           0       -2.951864    0.720156   -0.065399
      5          6           0       -3.986879    0.578334   -1.131954
      6         26           0        1.504499    0.175862   -0.085863
      7         17           0        1.825114    2.163470   -0.956280
      8          6           0       -2.197954    1.993097   -0.023572
      9         17           0        2.553990   -1.497429   -1.048120
     10         17           0        1.751725    0.167982    2.107094
     11          1           0       -3.332759   -1.164670    0.770379
     12          1           0       -2.646498    2.771492   -0.644421
     13          1           0       -2.045524    2.363233    0.994173
     14          1           0       -1.189456    1.767696   -0.418951
     15          1           0       -4.806887    1.274335   -0.903669
     16          1           0       -3.594985    0.882811   -2.110514
     17          1           0       -4.402047   -0.428909   -1.197866
     18          6           0       -2.021876   -0.024857    2.154381
     19          1           0       -2.641226    0.692943    2.704568
     20          1           0       -1.955524   -0.930748    2.758820
     21          1           0       -1.017145    0.395048    2.066026
     22          6           0       -0.756239   -2.224472    0.671436
     23          1           0       -1.583786   -2.886372    0.937606
     24          1           0       -0.000996   -2.810385    0.131555
     25          1           0       -0.281245   -1.829188    1.568345
     26          6           0       -1.823718   -1.642934   -1.561721
     27          1           0       -1.072149   -2.274065   -2.051083
     28          1           0       -2.708253   -2.254666   -1.365982
     29          1           0       -2.067321   -0.833550   -2.249902
 ---------------------------------------------------------------------

 SCF Done:  E(UB97D3) =  -3034.61800163     A.U. after   17 cycles
 Normal termination of Gaussian 16 at Tue Feb 11 23:54:34 2020.
