 Gaussian 16, Revision A.03,

 --------------------------------
 #t pop=none jul-cc-pvdz upbe1pbe
 --------------------------------
 ------------------------
 theory_abbreviation pbe0
 ------------------------
 Symbolic Z-matrix:
 Charge =  0 Multiplicity = 6

 SCF Done:  E(UPBE1PBE) =  -3033.11523580     A.U. after   21 cycles
 Normal termination of Gaussian 16 at Tue Feb 11 13:56:44 2020.

 ---------------------------------------------------------------------
 #t pop=none jul-cc-pvdz guess=read upbe1pbe empiricaldispersion=gd3bj
 ---------------------------------------------------------------------
 -----------------------------
 theory_abbreviation pbe0_d3bj
 -----------------------------
 Symbolic Z-matrix:
 Charge =  0 Multiplicity = 6

 SCF Done:  E(UPBE1PBE) =  -3033.15220555     A.U. after    1 cycles
 Normal termination of Gaussian 16 at Tue Feb 11 13:57:54 2020.

 -----------------------------------------
 #t pop=none jul-cc-pvdz guess=read ub3lyp
 -----------------------------------------
 -------------------------
 theory_abbreviation b3lyp
 -------------------------
 Symbolic Z-matrix:
 Charge =  0 Multiplicity = 6

 SCF Done:  E(UB3LYP) =  -3034.32786159     A.U. after   13 cycles
 Normal termination of Gaussian 16 at Tue Feb 11 14:11:35 2020.

 -------------------------------------------------------------------
 #t pop=none jul-cc-pvdz guess=read ub3lyp empiricaldispersion=gd3bj
 -------------------------------------------------------------------
 ------------------------------
 theory_abbreviation b3lyp_d3bj
 ------------------------------
 Symbolic Z-matrix:
 Charge =  0 Multiplicity = 6

 SCF Done:  E(UB3LYP) =  -3034.39671516     A.U. after    1 cycles
 Normal termination of Gaussian 16 at Tue Feb 11 14:12:45 2020.

 ----------------------------------------
 #t pop=none jul-cc-pvdz guess=read ub97d
 ----------------------------------------
 ------------------------
 theory_abbreviation b97d
 ------------------------
 Symbolic Z-matrix:
 Charge =  0 Multiplicity = 6

 SCF Done:  E(UB97D) =  -3034.57760198     A.U. after   16 cycles

 ----------------------------------------------------------------
 #t pop=none jul-cc-pvdz guess=read ub97d empiricaldispersion=gd3
 ----------------------------------------------------------------
 -------------------------
 theory_abbreviation b97d3
 -------------------------
 Symbolic Z-matrix:
 Charge =  0 Multiplicity = 6

 SCF Done:  E(UB97D) =  -3034.57849921     A.U. after    1 cycles
 SCF Done:  E(UBHandHLYP) =  -3033.97208403     A.U. after   16 cycles
 SCF Done:  E(UBHandH) =  -3026.31847489     A.U. after   14 cycles
 SCF Done:  E(ULC-wPBE) =  -3033.46089411     A.U. after   17 cycles
 SCF Done:  E(UB-P86) =  -3034.63372113     A.U. after   17 cycles
 SCF Done:  E(UmPW1LYP) =  -3034.04632722     A.U. after   14 cycles
 SCF Done:  E(UmPW1PBE) =  -3033.88969889     A.U. after   14 cycles
 SCF Done:  E(UmPW3PBE) =  -3033.66174783     A.U. after   14 cycles
 SCF Done:  E(UM11) =  -3033.81036651     A.U. after   17 cycles
 SCF Done:  E(UN12SX) =  -3033.25526394     A.U. after   16 cycles
 SCF Done:  E(UMN12SX) =  -3033.65130020     A.U. after   16 cycles
 SCF Done:  E(UB1B95) =  -3034.38124395     A.U. after   15 cycles
 Normal termination of Gaussian 16 at Tue Feb 11 22:27:50 2020.
 SCF Done:  E(UB3PW91) =  -3033.97713345     A.U. after   14 cycles
 Normal termination of Gaussian 16 at Tue Feb 11 22:42:06 2020.
 SCF Done:  E(UM06L) =  -3034.19289994     A.U. after   16 cycles
 Normal termination of Gaussian 16 at Tue Feb 11 23:00:51 2020.
 Gaussian 16:  ES64L-G16RevA.03 25-Dec-2016

                         Standard orientation:
 ---------------------------------------------------------------------
 Center     Atomic      Atomic             Coordinates (Angstroms)
 Number     Number       Type             X           Y           Z
 ---------------------------------------------------------------------
      1          8           0       -0.357632   -0.273329   -0.597228
      2          6           0       -1.463526   -1.173609   -0.340360
      3          6           0       -2.698265   -0.156264   -0.319634
      4          6           0       -1.974761    1.172465   -0.230377
      5          6           0       -1.820797    2.019894   -1.428778
      6         26           0        1.382306    0.016961    0.008432
      7         17           0        1.787627    2.031192   -0.845839
      8          6           0       -1.624466    1.759413    1.078986
      9         17           0        2.612886   -1.649802   -0.707245
     10         17           0        1.340262    0.160451    2.223408
     11          1           0       -3.177099   -0.203178   -1.302678
     12          1           0       -2.522678    2.297867    1.426857
     13          1           0       -1.375883    1.010885    1.831488
     14          1           0       -0.809184    2.481204    0.991707
     15          1           0       -2.488534    2.889972   -1.317875
     16          1           0       -0.795460    2.409779   -1.470076
     17          1           0       -2.063156    1.493883   -2.352252
     18          6           0       -3.764154   -0.382730    0.755197
     19          1           0       -4.562856    0.363578    0.680773
     20          1           0       -4.220112   -1.367037    0.612915
     21          1           0       -3.353107   -0.347119    1.766677
     22          6           0       -1.254799   -1.924930    0.969236
     23          1           0       -2.084428   -2.611119    1.166815
     24          1           0       -0.337124   -2.516917    0.889151
     25          1           0       -1.133785   -1.254926    1.822359
     26          6           0       -1.566362   -2.141325   -1.512255
     27          1           0       -0.657257   -2.749182   -1.559782
     28          1           0       -2.429670   -2.807939   -1.400626
     29          1           0       -1.658981   -1.592888   -2.454467
 ---------------------------------------------------------------------

 SCF Done:  E(UB97D3) =  -3034.61404558     A.U. after   16 cycles
 Normal termination of Gaussian 16 at Tue Feb 11 23:13:39 2020.
