 Gaussian 16, Revision A.03,

 --------------------------------
 #t pop=none jul-cc-pvdz upbe1pbe
 --------------------------------
 ------------------------
 theory_abbreviation pbe0
 ------------------------
 Symbolic Z-matrix:
 Charge =  0 Multiplicity = 6

 SCF Done:  E(UPBE1PBE) =  -3033.13580280     A.U. after   20 cycles
 Normal termination of Gaussian 16 at Wed Feb 12 14:11:36 2020.

 ---------------------------------------------------------------------
 #t pop=none jul-cc-pvdz guess=read upbe1pbe empiricaldispersion=gd3bj
 ---------------------------------------------------------------------
 -----------------------------
 theory_abbreviation pbe0_d3bj
 -----------------------------
 Symbolic Z-matrix:
 Charge =  0 Multiplicity = 6

 SCF Done:  E(UPBE1PBE) =  -3033.17235103     A.U. after    1 cycles
 Normal termination of Gaussian 16 at Wed Feb 12 14:12:58 2020.

 -----------------------------------------
 #t pop=none jul-cc-pvdz guess=read ub3lyp
 -----------------------------------------
 -------------------------
 theory_abbreviation b3lyp
 -------------------------
 Symbolic Z-matrix:
 Charge =  0 Multiplicity = 6

 SCF Done:  E(UB3LYP) =  -3034.35392704     A.U. after   13 cycles
 Normal termination of Gaussian 16 at Wed Feb 12 14:26:34 2020.

 -------------------------------------------------------------------
 #t pop=none jul-cc-pvdz guess=read ub3lyp empiricaldispersion=gd3bj
 -------------------------------------------------------------------
 ------------------------------
 theory_abbreviation b3lyp_d3bj
 ------------------------------
 Symbolic Z-matrix:
 Charge =  0 Multiplicity = 6

 SCF Done:  E(UB3LYP) =  -3034.42163141     A.U. after    1 cycles
 Normal termination of Gaussian 16 at Wed Feb 12 14:27:43 2020.

 ----------------------------------------
 #t pop=none jul-cc-pvdz guess=read ub97d
 ----------------------------------------
 ------------------------
 theory_abbreviation b97d
 ------------------------
 Symbolic Z-matrix:
 Charge =  0 Multiplicity = 6

 SCF Done:  E(UB97D) =  -3034.60457721     A.U. after   16 cycles

 ----------------------------------------------------------------
 #t pop=none jul-cc-pvdz guess=read ub97d empiricaldispersion=gd3
 ----------------------------------------------------------------
 -------------------------
 theory_abbreviation b97d3
 -------------------------
 Symbolic Z-matrix:
 Charge =  0 Multiplicity = 6

 SCF Done:  E(UB97D) =  -3034.60631156     A.U. after    1 cycles
 SCF Done:  E(UBHandHLYP) =  -3033.99588989     A.U. after   18 cycles
 SCF Done:  E(UBHandH) =  -3026.33269202     A.U. after   14 cycles
 SCF Done:  E(ULC-wPBE) =  -3033.47730953     A.U. after   17 cycles
 SCF Done:  E(UB-P86) =  -3034.65387877     A.U. after   17 cycles
 SCF Done:  E(UmPW1LYP) =  -3034.07230137     A.U. after   13 cycles
 SCF Done:  E(UmPW1PBE) =  -3033.91023858     A.U. after   14 cycles
 SCF Done:  E(UmPW3PBE) =  -3033.68318569     A.U. after   13 cycles
 SCF Done:  E(UM11) =  -3033.83490549     A.U. after   17 cycles
 SCF Done:  E(UN12SX) =  -3033.27472759     A.U. after   16 cycles
 SCF Done:  E(UMN12SX) =  -3033.67727653     A.U. after   16 cycles
 SCF Done:  E(UB1B95) =  -3034.40660216     A.U. after   14 cycles
 Normal termination of Gaussian 16 at Wed Feb 12 21:59:02 2020.
 SCF Done:  E(UB3PW91) =  -3033.99936442     A.U. after   13 cycles
 Normal termination of Gaussian 16 at Wed Feb 12 22:11:59 2020.
 SCF Done:  E(UM06L) =  -3034.22190921     A.U. after   17 cycles
 Normal termination of Gaussian 16 at Wed Feb 12 22:30:22 2020.
 Gaussian 16:  ES64L-G16RevA.03 25-Dec-2016

                         Standard orientation:
 ---------------------------------------------------------------------
 Center     Atomic      Atomic             Coordinates (Angstroms)
 Number     Number       Type             X           Y           Z
 ---------------------------------------------------------------------
      1          8           0        0.220041    0.369249   -0.852488
      2          6           0        0.983453    1.343202   -0.657935
      3          6           0        3.120651    0.056699    0.499560
      4          6           0        2.600410   -0.960465   -0.215561
      5          6           0        2.991537   -1.193337   -1.649856
      6         26           0       -1.472180   -0.156137    0.024134
      7         17           0       -2.082109   -1.971576   -1.003897
      8          6           0        1.665247   -1.994225    0.340639
      9         17           0       -2.685454    1.619958   -0.383158
     10         17           0       -1.093740   -0.410416    2.170450
     11          1           0        3.848534    0.697007   -0.000094
     12          1           0        2.178638   -2.964269    0.389583
     13          1           0        1.291840   -1.760409    1.337175
     14          1           0        0.806463   -2.139018   -0.325824
     15          1           0        3.451380   -2.184496   -1.756599
     16          1           0        2.106519   -1.193468   -2.299705
     17          1           0        3.706326   -0.450719   -2.016105
     18          6           0        2.965717    0.291328    1.977938
     19          1           0        3.796817   -0.174429    2.525163
     20          1           0        2.993937    1.358991    2.220015
     21          1           0        2.036976   -0.120878    2.380546
     22          6           0        0.839829    2.210005    0.552413
     23          1           0        1.726084    2.821600    0.725342
     24          1           0       -0.012289    2.876929    0.352303
     25          1           0        0.592548    1.626501    1.439685
     26          6           0        1.791474    1.853576   -1.811061
     27          1           0        1.206928    2.674554   -2.252381
     28          1           0        2.749605    2.265213   -1.490248
     29          1           0        1.928283    1.086349   -2.570966
 ---------------------------------------------------------------------

 SCF Done:  E(UB97D3) =  -3034.64088153     A.U. after   16 cycles
 Normal termination of Gaussian 16 at Wed Feb 12 22:42:49 2020.
