 Gaussian 16, Revision A.03,

 --------------------------------
 #t pop=none jul-cc-pvdz upbe1pbe
 --------------------------------
 ------------------------
 theory_abbreviation pbe0
 ------------------------
 Symbolic Z-matrix:
 Charge =  0 Multiplicity = 6

 SCF Done:  E(UPBE1PBE) =  -3033.13098984     A.U. after   21 cycles
 Normal termination of Gaussian 16 at Tue Feb 11 13:59:41 2020.

 ---------------------------------------------------------------------
 #t pop=none jul-cc-pvdz guess=read upbe1pbe empiricaldispersion=gd3bj
 ---------------------------------------------------------------------
 -----------------------------
 theory_abbreviation pbe0_d3bj
 -----------------------------
 Symbolic Z-matrix:
 Charge =  0 Multiplicity = 6

 SCF Done:  E(UPBE1PBE) =  -3033.16757582     A.U. after    1 cycles
 Normal termination of Gaussian 16 at Tue Feb 11 14:00:50 2020.

 -----------------------------------------
 #t pop=none jul-cc-pvdz guess=read ub3lyp
 -----------------------------------------
 -------------------------
 theory_abbreviation b3lyp
 -------------------------
 Symbolic Z-matrix:
 Charge =  0 Multiplicity = 6

 SCF Done:  E(UB3LYP) =  -3034.34879802     A.U. after   13 cycles
 Normal termination of Gaussian 16 at Tue Feb 11 14:14:16 2020.

 -------------------------------------------------------------------
 #t pop=none jul-cc-pvdz guess=read ub3lyp empiricaldispersion=gd3bj
 -------------------------------------------------------------------
 ------------------------------
 theory_abbreviation b3lyp_d3bj
 ------------------------------
 Symbolic Z-matrix:
 Charge =  0 Multiplicity = 6

 SCF Done:  E(UB3LYP) =  -3034.41665937     A.U. after    1 cycles
 Normal termination of Gaussian 16 at Tue Feb 11 14:15:25 2020.

 ----------------------------------------
 #t pop=none jul-cc-pvdz guess=read ub97d
 ----------------------------------------
 ------------------------
 theory_abbreviation b97d
 ------------------------
 Symbolic Z-matrix:
 Charge =  0 Multiplicity = 6

 SCF Done:  E(UB97D) =  -3034.60061035     A.U. after   15 cycles

 ----------------------------------------------------------------
 #t pop=none jul-cc-pvdz guess=read ub97d empiricaldispersion=gd3
 ----------------------------------------------------------------
 -------------------------
 theory_abbreviation b97d3
 -------------------------
 Symbolic Z-matrix:
 Charge =  0 Multiplicity = 6

 SCF Done:  E(UB97D) =  -3034.60160431     A.U. after    1 cycles
 SCF Done:  E(UBHandHLYP) =  -3033.98968320     A.U. after   17 cycles
 SCF Done:  E(UBHandH) =  -3026.32775476     A.U. after   14 cycles
 SCF Done:  E(ULC-wPBE) =  -3033.47084533     A.U. after   19 cycles
 SCF Done:  E(UB-P86) =  -3034.65002111     A.U. after   16 cycles
 SCF Done:  E(UmPW1LYP) =  -3034.06697056     A.U. after   14 cycles
 SCF Done:  E(UmPW1PBE) =  -3033.90549126     A.U. after   14 cycles
 SCF Done:  E(UmPW3PBE) =  -3033.67854129     A.U. after   13 cycles
 SCF Done:  E(UM11) =  -3033.82828346     A.U. after   17 cycles
 SCF Done:  E(UN12SX) =  -3033.26978091     A.U. after   16 cycles
 SCF Done:  E(UMN12SX) =  -3033.67093454     A.U. after   16 cycles
 SCF Done:  E(UB1B95) =  -3034.40086860     A.U. after   14 cycles
 Normal termination of Gaussian 16 at Tue Feb 11 22:31:57 2020.
 SCF Done:  E(UB3PW91) =  -3033.99462914     A.U. after   13 cycles
 Normal termination of Gaussian 16 at Tue Feb 11 22:45:19 2020.
 SCF Done:  E(UM06L) =  -3034.21603379     A.U. after   18 cycles
 Normal termination of Gaussian 16 at Tue Feb 11 23:06:02 2020.
 Gaussian 16:  ES64L-G16RevA.03 25-Dec-2016

                         Standard orientation:
 ---------------------------------------------------------------------
 Center     Atomic      Atomic             Coordinates (Angstroms)
 Number     Number       Type             X           Y           Z
 ---------------------------------------------------------------------
      1          8           0        0.185654    0.357737   -0.857703
      2          6           0        1.026491    1.278238   -0.662604
      3          6           0        2.927444    0.251103    0.594924
      4          6           0        2.743715   -0.899196   -0.096799
      5          6           0        3.392278   -1.130481   -1.431922
      6         26           0       -1.495301   -0.170369   -0.012461
      7         17           0       -2.023152   -2.035574   -1.005389
      8          6           0        1.847245   -2.007022    0.366170
      9         17           0       -2.766282    1.555386   -0.452784
     10         17           0       -1.123168   -0.404368    2.140796
     11          1           0        3.632432    0.969710    0.177946
     12          1           0        2.386248   -2.962825    0.363159
     13          1           0        1.428811   -1.846383    1.359433
     14          1           0        1.011720   -2.122499   -0.339073
     15          1           0        4.020810   -2.029396   -1.386576
     16          1           0        2.638161   -1.322881   -2.207250
     17          1           0        4.023230   -0.294292   -1.744320
     18          6           0        2.588177    0.451753    2.052431
     19          1           0        3.336393   -0.054547    2.676475
     20          1           0        2.612905    1.509108    2.327578
     21          1           0        1.608953    0.054236    2.327478
     22          6           0        0.796280    2.279369    0.430890
     23          1           0        1.679841    2.884178    0.636914
     24          1           0        0.000262    2.939922    0.055987
     25          1           0        0.425053    1.812893    1.343160
     26          6           0        1.851795    1.704209   -1.844576
     27          1           0        1.230946    2.425512   -2.395524
     28          1           0        2.774904    2.207869   -1.555845
     29          1           0        2.055618    0.866715   -2.509608
 ---------------------------------------------------------------------

 SCF Done:  E(UB97D3) =  -3034.63679898     A.U. after   16 cycles
 Normal termination of Gaussian 16 at Tue Feb 11 23:18:37 2020.
