 Gaussian 16, Revision A.03,

 --------------------------------
 #t pop=none jul-cc-pvdz upbe1pbe
 --------------------------------
 ------------------------
 theory_abbreviation pbe0
 ------------------------
 Symbolic Z-matrix:
 Charge =  0 Multiplicity = 6

 SCF Done:  E(UPBE1PBE) =  -3033.12064171     A.U. after   20 cycles
 Normal termination of Gaussian 16 at Tue Feb 11 13:57:32 2020.

 ---------------------------------------------------------------------
 #t pop=none jul-cc-pvdz guess=read upbe1pbe empiricaldispersion=gd3bj
 ---------------------------------------------------------------------
 -----------------------------
 theory_abbreviation pbe0_d3bj
 -----------------------------
 Symbolic Z-matrix:
 Charge =  0 Multiplicity = 6

 SCF Done:  E(UPBE1PBE) =  -3033.15777238     A.U. after    1 cycles
 Normal termination of Gaussian 16 at Tue Feb 11 13:58:40 2020.

 -----------------------------------------
 #t pop=none jul-cc-pvdz guess=read ub3lyp
 -----------------------------------------
 -------------------------
 theory_abbreviation b3lyp
 -------------------------
 Symbolic Z-matrix:
 Charge =  0 Multiplicity = 6

 SCF Done:  E(UB3LYP) =  -3034.33653492     A.U. after   14 cycles
 Normal termination of Gaussian 16 at Tue Feb 11 14:12:57 2020.

 -------------------------------------------------------------------
 #t pop=none jul-cc-pvdz guess=read ub3lyp empiricaldispersion=gd3bj
 -------------------------------------------------------------------
 ------------------------------
 theory_abbreviation b3lyp_d3bj
 ------------------------------
 Symbolic Z-matrix:
 Charge =  0 Multiplicity = 6

 SCF Done:  E(UB3LYP) =  -3034.40564405     A.U. after    1 cycles
 Normal termination of Gaussian 16 at Tue Feb 11 14:14:05 2020.

 ----------------------------------------
 #t pop=none jul-cc-pvdz guess=read ub97d
 ----------------------------------------
 ------------------------
 theory_abbreviation b97d
 ------------------------
 Symbolic Z-matrix:
 Charge =  0 Multiplicity = 6

 SCF Done:  E(UB97D) =  -3034.58996606     A.U. after   15 cycles

 ----------------------------------------------------------------
 #t pop=none jul-cc-pvdz guess=read ub97d empiricaldispersion=gd3
 ----------------------------------------------------------------
 -------------------------
 theory_abbreviation b97d3
 -------------------------
 Symbolic Z-matrix:
 Charge =  0 Multiplicity = 6

 SCF Done:  E(UB97D) =  -3034.59107990     A.U. after    1 cycles
 SCF Done:  E(UBHandHLYP) =  -3033.97646796     A.U. after   18 cycles
 SCF Done:  E(UBHandH) =  -3026.31914778     A.U. after   16 cycles
 SCF Done:  E(ULC-wPBE) =  -3033.45941528     A.U. after   19 cycles
 SCF Done:  E(UB-P86) =  -3034.64123709     A.U. after   16 cycles
 SCF Done:  E(UmPW1LYP) =  -3034.05446563     A.U. after   15 cycles
 SCF Done:  E(UmPW1PBE) =  -3033.89512355     A.U. after   16 cycles
 SCF Done:  E(UmPW3PBE) =  -3033.66810761     A.U. after   12 cycles
 SCF Done:  E(UM11) =  -3033.81737899     A.U. after   19 cycles
 SCF Done:  E(UN12SX) =  -3033.25975362     A.U. after   17 cycles
 SCF Done:  E(UMN12SX) =  -3033.65877638     A.U. after   17 cycles
 SCF Done:  E(UB1B95) =  -3034.38957699     A.U. after   15 cycles
 Normal termination of Gaussian 16 at Tue Feb 11 22:48:05 2020.
 SCF Done:  E(UB3PW91) =  -3033.98386031     A.U. after   16 cycles
 Normal termination of Gaussian 16 at Tue Feb 11 23:05:19 2020.
 SCF Done:  E(UM06L) =  -3034.20317868     A.U. after   18 cycles
 Normal termination of Gaussian 16 at Tue Feb 11 23:24:52 2020.
 Gaussian 16:  ES64L-G16RevA.03 25-Dec-2016

                         Standard orientation:
 ---------------------------------------------------------------------
 Center     Atomic      Atomic             Coordinates (Angstroms)
 Number     Number       Type             X           Y           Z
 ---------------------------------------------------------------------
      1          8           0       -0.264505   -0.256224   -0.744263
      2          6           0       -1.140318   -1.175020   -0.573338
      3          6           0       -2.781818   -0.321543    0.617064
      4          6           0       -2.731435    0.872011   -0.050507
      5          6           0       -3.505646    1.107584   -1.310842
      6         26           0        1.473622    0.158919   -0.034282
      7         17           0        1.974031    2.063008   -0.986095
      8          6           0       -1.836846    1.987910    0.368375
      9         17           0        2.690597   -1.564559   -0.626210
     10         17           0        1.271751    0.335070    2.154251
     11          1           0       -3.517275   -1.041539    0.261042
     12          1           0       -2.332697    2.956966    0.244849
     13          1           0       -1.465415    1.897224    1.388875
     14          1           0       -0.964763    1.995801   -0.304114
     15          1           0       -4.193709    1.948903   -1.154663
     16          1           0       -2.838876    1.405117   -2.131071
     17          1           0       -4.094652    0.240450   -1.616731
     18          6           0       -2.388329   -0.468007    2.072366
     19          1           0       -3.083814    0.107507    2.695662
     20          1           0       -2.453907   -1.508769    2.395623
     21          1           0       -1.379100   -0.110375    2.284882
     22          6           0       -0.820976   -2.289656    0.395675
     23          1           0       -1.683381   -2.924158    0.607119
     24          1           0       -0.056212   -2.896613   -0.108744
     25          1           0       -0.381516   -1.919257    1.321168
     26          6           0       -1.888333   -1.590531   -1.821026
     27          1           0       -1.207353   -2.255700   -2.368501
     28          1           0       -2.802809   -2.146085   -1.604969
     29          1           0       -2.098900   -0.737902   -2.464675
 ---------------------------------------------------------------------

 SCF Done:  E(UB97D3) =  -3034.62638407     A.U. after   15 cycles
 Normal termination of Gaussian 16 at Tue Feb 11 23:36:42 2020.
