 Gaussian 16, Revision A.03,

 --------------------------------
 #t pop=none jul-cc-pvdz upbe1pbe
 --------------------------------
 ------------------------
 theory_abbreviation pbe0
 ------------------------
 Symbolic Z-matrix:
 Charge =  0 Multiplicity = 6

 SCF Done:  E(UPBE1PBE) =  -3033.12452396     A.U. after   21 cycles
 Normal termination of Gaussian 16 at Tue Feb 11 14:47:43 2020.

 ---------------------------------------------------------------------
 #t pop=none jul-cc-pvdz guess=read upbe1pbe empiricaldispersion=gd3bj
 ---------------------------------------------------------------------
 -----------------------------
 theory_abbreviation pbe0_d3bj
 -----------------------------
 Symbolic Z-matrix:
 Charge =  0 Multiplicity = 6

 SCF Done:  E(UPBE1PBE) =  -3033.16196983     A.U. after    1 cycles
 Normal termination of Gaussian 16 at Tue Feb 11 14:48:54 2020.

 -----------------------------------------
 #t pop=none jul-cc-pvdz guess=read ub3lyp
 -----------------------------------------
 -------------------------
 theory_abbreviation b3lyp
 -------------------------
 Symbolic Z-matrix:
 Charge =  0 Multiplicity = 6

 SCF Done:  E(UB3LYP) =  -3034.34074635     A.U. after   13 cycles
 Normal termination of Gaussian 16 at Tue Feb 11 15:02:47 2020.

 -------------------------------------------------------------------
 #t pop=none jul-cc-pvdz guess=read ub3lyp empiricaldispersion=gd3bj
 -------------------------------------------------------------------
 ------------------------------
 theory_abbreviation b3lyp_d3bj
 ------------------------------
 Symbolic Z-matrix:
 Charge =  0 Multiplicity = 6

 SCF Done:  E(UB3LYP) =  -3034.41042481     A.U. after    1 cycles
 Normal termination of Gaussian 16 at Tue Feb 11 15:03:58 2020.

 ----------------------------------------
 #t pop=none jul-cc-pvdz guess=read ub97d
 ----------------------------------------
 ------------------------
 theory_abbreviation b97d
 ------------------------
 Symbolic Z-matrix:
 Charge =  0 Multiplicity = 6

 SCF Done:  E(UB97D) =  -3034.59427752     A.U. after   15 cycles

 ----------------------------------------------------------------
 #t pop=none jul-cc-pvdz guess=read ub97d empiricaldispersion=gd3
 ----------------------------------------------------------------
 -------------------------
 theory_abbreviation b97d3
 -------------------------
 Symbolic Z-matrix:
 Charge =  0 Multiplicity = 6

 SCF Done:  E(UB97D) =  -3034.59544917     A.U. after    1 cycles
 SCF Done:  E(UBHandHLYP) =  -3033.98173023     A.U. after   18 cycles
 SCF Done:  E(UBHandH) =  -3026.32369189     A.U. after   15 cycles
 SCF Done:  E(ULC-wPBE) =  -3033.46478369     A.U. after   19 cycles
 SCF Done:  E(UB-P86) =  -3034.64498369     A.U. after   16 cycles
 SCF Done:  E(UmPW1LYP) =  -3034.05891152     A.U. after   14 cycles
 SCF Done:  E(UmPW1PBE) =  -3033.89891759     A.U. after   14 cycles
 SCF Done:  E(UmPW3PBE) =  -3033.67183166     A.U. after   13 cycles
 SCF Done:  E(UM11) =  -3033.82242490     A.U. after   18 cycles
 SCF Done:  E(UN12SX) =  -3033.26349512     A.U. after   18 cycles
 SCF Done:  E(UMN12SX) =  -3033.66441160     A.U. after   16 cycles
 SCF Done:  E(UB1B95) =  -3034.39442064     A.U. after   14 cycles
 Normal termination of Gaussian 16 at Tue Feb 11 23:31:04 2020.
 SCF Done:  E(UB3PW91) =  -3033.98762043     A.U. after   13 cycles
 Normal termination of Gaussian 16 at Tue Feb 11 23:44:15 2020.
 SCF Done:  E(UM06L) =  -3034.20932422     A.U. after   17 cycles
 Normal termination of Gaussian 16 at Wed Feb 12 00:03:19 2020.
 Gaussian 16:  ES64L-G16RevA.03 25-Dec-2016

                         Standard orientation:
 ---------------------------------------------------------------------
 Center     Atomic      Atomic             Coordinates (Angstroms)
 Number     Number       Type             X           Y           Z
 ---------------------------------------------------------------------
      1          8           0       -0.264841   -0.257635   -0.812592
      2          6           0       -1.115682   -1.186356   -0.644582
      3          6           0       -2.913551   -0.203807    0.506406
      4          6           0       -2.575758    0.953965   -0.118533
      5          6           0       -3.092713    1.299063   -1.483583
      6         26           0        1.452111    0.137507   -0.000531
      7         17           0        2.048778    2.033639   -0.900473
      8          6           0       -1.666354    1.980246    0.477258
      9         17           0        2.649764   -1.608132   -0.564582
     10         17           0        1.147301    0.261461    2.178937
     11          1           0       -3.652555   -0.832908    0.012720
     12          1           0       -2.214897    2.923025    0.605676
     13          1           0       -1.245347    1.693013    1.439507
     14          1           0       -0.840560    2.196959   -0.212292
     15          1           0       -3.603215    2.269807   -1.445253
     16          1           0       -2.261167    1.416538   -2.191150
     17          1           0       -3.798683    0.560366   -1.870387
     18          6           0       -2.716243   -0.474098    1.978757
     19          1           0       -3.487871    0.054392    2.553668
     20          1           0       -2.822154   -1.537193    2.208391
     21          1           0       -1.744437   -0.142256    2.351159
     22          6           0       -0.875393   -2.229017    0.411928
     23          1           0       -1.750934   -2.855832    0.585468
     24          1           0       -0.068269   -2.861077    0.013297
     25          1           0       -0.516841   -1.798638    1.346211
     26          6           0       -1.870078   -1.634655   -1.869894
     27          1           0       -1.195872   -2.331437   -2.387718
     28          1           0       -2.788590   -2.171815   -1.629037
     29          1           0       -2.069483   -0.807551   -2.548257
 ---------------------------------------------------------------------

 SCF Done:  E(UB97D3) =  -3034.63065823     A.U. after   17 cycles
 Normal termination of Gaussian 16 at Wed Feb 12 00:16:39 2020.
