 Gaussian 16, Revision A.03,

 --------------------------------
 #t pop=none jul-cc-pvdz upbe1pbe
 --------------------------------
 ------------------------
 theory_abbreviation pbe0
 ------------------------
 Symbolic Z-matrix:
 Charge =  0 Multiplicity = 6

 SCF Done:  E(UPBE1PBE) =  -3033.10201145     A.U. after   20 cycles
 Normal termination of Gaussian 16 at Tue Feb 11 23:37:41 2020.

 ---------------------------------------------------------------------
 #t pop=none jul-cc-pvdz guess=read upbe1pbe empiricaldispersion=gd3bj
 ---------------------------------------------------------------------
 -----------------------------
 theory_abbreviation pbe0_d3bj
 -----------------------------
 Symbolic Z-matrix:
 Charge =  0 Multiplicity = 6

 SCF Done:  E(UPBE1PBE) =  -3033.13980467     A.U. after    1 cycles
 Normal termination of Gaussian 16 at Tue Feb 11 23:38:47 2020.

 -----------------------------------------
 #t pop=none jul-cc-pvdz guess=read ub3lyp
 -----------------------------------------
 -------------------------
 theory_abbreviation b3lyp
 -------------------------
 Symbolic Z-matrix:
 Charge =  0 Multiplicity = 6

 SCF Done:  E(UB3LYP) =  -3034.31529653     A.U. after   14 cycles
 Normal termination of Gaussian 16 at Tue Feb 11 23:52:40 2020.

 -------------------------------------------------------------------
 #t pop=none jul-cc-pvdz guess=read ub3lyp empiricaldispersion=gd3bj
 -------------------------------------------------------------------
 ------------------------------
 theory_abbreviation b3lyp_d3bj
 ------------------------------
 Symbolic Z-matrix:
 Charge =  0 Multiplicity = 6

 SCF Done:  E(UB3LYP) =  -3034.38573815     A.U. after    1 cycles
 Normal termination of Gaussian 16 at Tue Feb 11 23:53:46 2020.

 ----------------------------------------
 #t pop=none jul-cc-pvdz guess=read ub97d
 ----------------------------------------
 ------------------------
 theory_abbreviation b97d
 ------------------------
 Symbolic Z-matrix:
 Charge =  0 Multiplicity = 6

 SCF Done:  E(UB97D) =  -3034.56806790     A.U. after   15 cycles

 ----------------------------------------------------------------
 #t pop=none jul-cc-pvdz guess=read ub97d empiricaldispersion=gd3
 ----------------------------------------------------------------
 -------------------------
 theory_abbreviation b97d3
 -------------------------
 Symbolic Z-matrix:
 Charge =  0 Multiplicity = 6

 SCF Done:  E(UB97D) =  -3034.56939277     A.U. after    1 cycles
 SCF Done:  E(UBHandHLYP) =  -3033.95774434     A.U. after   17 cycles
 SCF Done:  E(UBHandH) =  -3026.30478178     A.U. after   14 cycles
 SCF Done:  E(ULC-wPBE) =  -3033.44254196     A.U. after   18 cycles
 SCF Done:  E(UB-P86) =  -3034.62189767     A.U. after   17 cycles
 SCF Done:  E(UmPW1LYP) =  -3034.03352912     A.U. after   15 cycles
 SCF Done:  E(UmPW1PBE) =  -3033.87646461     A.U. after   15 cycles
 SCF Done:  E(UmPW3PBE) =  -3033.64885061     A.U. after   13 cycles
 SCF Done:  E(UM11) =  -3033.79984026     A.U. after   19 cycles
 SCF Done:  E(UN12SX) =  -3033.24179776     A.U. after   17 cycles
 SCF Done:  E(UMN12SX) =  -3033.64110842     A.U. after   15 cycles
 SCF Done:  E(UB1B95) =  -3034.37146176     A.U. after   16 cycles
 Normal termination of Gaussian 16 at Wed Feb 12 07:58:29 2020.
 SCF Done:  E(UB3PW91) =  -3033.96423968     A.U. after   14 cycles
 Normal termination of Gaussian 16 at Wed Feb 12 08:12:29 2020.
 SCF Done:  E(UM06L) =  -3034.18276573     A.U. after   17 cycles
 Normal termination of Gaussian 16 at Wed Feb 12 08:31:03 2020.
 Gaussian 16:  ES64L-G16RevA.03 25-Dec-2016

                         Standard orientation:
 ---------------------------------------------------------------------
 Center     Atomic      Atomic             Coordinates (Angstroms)
 Number     Number       Type             X           Y           Z
 ---------------------------------------------------------------------
      1          8           0       -0.340751   -0.102328   -0.548556
      2          6           0       -1.265040   -1.030015   -0.485872
      3          6           0       -3.060869   -0.023804   -0.070499
      4          6           0       -2.231477    1.069915   -0.211615
      5          6           0       -2.057756    1.752530   -1.527084
      6         26           0        1.440825    0.053325    0.049402
      7         17           0        2.020147    2.008367   -0.777002
      8          6           0       -1.592488    1.744192    0.957973
      9         17           0        2.438056   -1.729224   -0.769971
     10         17           0        1.391628    0.036001    2.260144
     11          1           0       -3.622824   -0.313319   -0.955546
     12          1           0       -2.329441    2.448627    1.372223
     13          1           0       -1.313338    1.054748    1.755671
     14          1           0       -0.709650    2.312704    0.659435
     15          1           0       -2.551082    2.732517   -1.450670
     16          1           0       -0.999839    1.935556   -1.733990
     17          1           0       -2.518790    1.209609   -2.354608
     18          6           0       -3.673047   -0.463090    1.236859
     19          1           0       -4.585717    0.117473    1.424588
     20          1           0       -3.964660   -1.516674    1.207200
     21          1           0       -3.010424   -0.316785    2.092207
     22          6           0       -1.182876   -1.984285    0.677481
     23          1           0       -2.042001   -2.653141    0.740991
     24          1           0       -0.285822   -2.591844    0.488806
     25          1           0       -1.022143   -1.465649    1.623110
     26          6           0       -1.632841   -1.642498   -1.816868
     27          1           0       -0.758603   -2.235434   -2.119499
     28          1           0       -2.501697   -2.301241   -1.750581
     29          1           0       -1.788194   -0.880099   -2.581524
 ---------------------------------------------------------------------

 SCF Done:  E(UB97D3) =  -3034.60508163     A.U. after   15 cycles
 Normal termination of Gaussian 16 at Wed Feb 12 08:42:59 2020.
