 Gaussian 16, Revision A.03,

 --------------------------------
 #t pop=none jul-cc-pvdz upbe1pbe
 --------------------------------
 ------------------------
 theory_abbreviation pbe0
 ------------------------
 Symbolic Z-matrix:
 Charge =  0 Multiplicity = 6

 SCF Done:  E(UPBE1PBE) =  -3033.10998734     A.U. after   21 cycles
 Normal termination of Gaussian 16 at Tue Feb 11 13:58:12 2020.

 ---------------------------------------------------------------------
 #t pop=none jul-cc-pvdz guess=read upbe1pbe empiricaldispersion=gd3bj
 ---------------------------------------------------------------------
 -----------------------------
 theory_abbreviation pbe0_d3bj
 -----------------------------
 Symbolic Z-matrix:
 Charge =  0 Multiplicity = 6

 SCF Done:  E(UPBE1PBE) =  -3033.14638276     A.U. after    1 cycles
 Normal termination of Gaussian 16 at Tue Feb 11 13:59:22 2020.

 -----------------------------------------
 #t pop=none jul-cc-pvdz guess=read ub3lyp
 -----------------------------------------
 -------------------------
 theory_abbreviation b3lyp
 -------------------------
 Symbolic Z-matrix:
 Charge =  0 Multiplicity = 6

 SCF Done:  E(UB3LYP) =  -3034.32237284     A.U. after   15 cycles
 Normal termination of Gaussian 16 at Tue Feb 11 14:14:44 2020.

 -------------------------------------------------------------------
 #t pop=none jul-cc-pvdz guess=read ub3lyp empiricaldispersion=gd3bj
 -------------------------------------------------------------------
 ------------------------------
 theory_abbreviation b3lyp_d3bj
 ------------------------------
 Symbolic Z-matrix:
 Charge =  0 Multiplicity = 6

 SCF Done:  E(UB3LYP) =  -3034.39039762     A.U. after    1 cycles
 Normal termination of Gaussian 16 at Tue Feb 11 14:15:52 2020.

 ----------------------------------------
 #t pop=none jul-cc-pvdz guess=read ub97d
 ----------------------------------------
 ------------------------
 theory_abbreviation b97d
 ------------------------
 Symbolic Z-matrix:
 Charge =  0 Multiplicity = 6

 SCF Done:  E(UB97D) =  -3034.57612845     A.U. after   16 cycles

 ----------------------------------------------------------------
 #t pop=none jul-cc-pvdz guess=read ub97d empiricaldispersion=gd3
 ----------------------------------------------------------------
 -------------------------
 theory_abbreviation b97d3
 -------------------------
 Symbolic Z-matrix:
 Charge =  0 Multiplicity = 6

 SCF Done:  E(UB97D) =  -3034.57645836     A.U. after    1 cycles
 SCF Done:  E(UBHandHLYP) =  -3033.96298318     A.U. after   17 cycles
 SCF Done:  E(UBHandH) =  -3026.31131327     A.U. after   16 cycles
 SCF Done:  E(ULC-wPBE) =  -3033.44922344     A.U. after   18 cycles
 SCF Done:  E(UB-P86) =  -3034.62936789     A.U. after   18 cycles
 SCF Done:  E(UmPW1LYP) =  -3034.04006375     A.U. after   15 cycles
 SCF Done:  E(UmPW1PBE) =  -3033.88439555     A.U. after   15 cycles
 SCF Done:  E(UmPW3PBE) =  -3033.65697184     A.U. after   15 cycles
 SCF Done:  E(UM11) =  -3033.80532944     A.U. after   19 cycles
 SCF Done:  E(UN12SX) =  -3033.25002291     A.U. after   17 cycles
 SCF Done:  E(UMN12SX) =  -3033.64638725     A.U. after   17 cycles
 SCF Done:  E(UB1B95) =  -3034.37752827     A.U. after   17 cycles
 Normal termination of Gaussian 16 at Tue Feb 11 23:00:50 2020.
 SCF Done:  E(UB3PW91) =  -3033.97235742     A.U. after   15 cycles
 Normal termination of Gaussian 16 at Tue Feb 11 23:16:00 2020.
 SCF Done:  E(UM06L) =  -3034.19025085     A.U. after   17 cycles
 Normal termination of Gaussian 16 at Tue Feb 11 23:34:30 2020.
 Gaussian 16:  ES64L-G16RevA.03 25-Dec-2016

                         Standard orientation:
 ---------------------------------------------------------------------
 Center     Atomic      Atomic             Coordinates (Angstroms)
 Number     Number       Type             X           Y           Z
 ---------------------------------------------------------------------
      1          8           0       -0.243806   -0.387191   -0.598627
      2          6           0       -1.288687   -1.154134   -0.264471
      3          6           0       -2.329931   -0.268077    0.827874
      4          6           0       -2.983667    0.683313   -0.009382
      5          6           0       -4.337432    0.434025   -0.561791
      6         26           0        1.491716    0.126790   -0.102431
      7         17           0        2.799358   -0.456971   -1.762368
      8          6           0       -2.244755    1.871430   -0.452802
      9         17           0        2.064550   -0.834441    1.801941
     10         17           0        1.308990    2.328044    0.156164
     11          1           0       -3.023680   -1.036875    1.175525
     12          1           0       -2.790489    2.493923   -1.163331
     13          1           0       -1.877940    2.474434    0.385710
     14          1           0       -1.304908    1.485651   -0.903698
     15          1           0       -5.012989    1.185038   -0.122052
     16          1           0       -4.363700    0.607087   -1.644550
     17          1           0       -4.724892   -0.558412   -0.326238
     18          6           0       -1.467244    0.295571    1.961127
     19          1           0       -2.099853    0.860604    2.653830
     20          1           0       -0.987204   -0.504976    2.523141
     21          1           0       -0.686084    0.958630    1.590254
     22          6           0       -0.911847   -2.395118    0.563938
     23          1           0       -1.796638   -2.966089    0.859003
     24          1           0       -0.290488   -3.023887   -0.082721
     25          1           0       -0.317186   -2.143406    1.440544
     26          6           0       -2.067363   -1.568394   -1.519343
     27          1           0       -1.435660   -2.254835   -2.090920
     28          1           0       -3.003638   -2.082182   -1.278858
     29          1           0       -2.272544   -0.708151   -2.161852
 ---------------------------------------------------------------------

 SCF Done:  E(UB97D3) =  -3034.61030019     A.U. after   16 cycles
 Normal termination of Gaussian 16 at Tue Feb 11 23:47:08 2020.
