 Gaussian 16, Revision A.03,

 --------------------------------
 #t pop=none jul-cc-pvdz upbe1pbe
 --------------------------------
 ------------------------
 theory_abbreviation pbe0
 ------------------------
 Symbolic Z-matrix:
 Charge =  0 Multiplicity = 6

 SCF Done:  E(UPBE1PBE) =  -3033.09966374     A.U. after   21 cycles
 Normal termination of Gaussian 16 at Tue Feb 11 14:45:39 2020.

 ---------------------------------------------------------------------
 #t pop=none jul-cc-pvdz guess=read upbe1pbe empiricaldispersion=gd3bj
 ---------------------------------------------------------------------
 -----------------------------
 theory_abbreviation pbe0_d3bj
 -----------------------------
 Symbolic Z-matrix:
 Charge =  0 Multiplicity = 6

 SCF Done:  E(UPBE1PBE) =  -3033.13665898     A.U. after    1 cycles
 Normal termination of Gaussian 16 at Tue Feb 11 14:46:49 2020.

 -----------------------------------------
 #t pop=none jul-cc-pvdz guess=read ub3lyp
 -----------------------------------------
 -------------------------
 theory_abbreviation b3lyp
 -------------------------
 Symbolic Z-matrix:
 Charge =  0 Multiplicity = 6

 SCF Done:  E(UB3LYP) =  -3034.31330812     A.U. after   14 cycles
 Normal termination of Gaussian 16 at Tue Feb 11 15:01:13 2020.

 -------------------------------------------------------------------
 #t pop=none jul-cc-pvdz guess=read ub3lyp empiricaldispersion=gd3bj
 -------------------------------------------------------------------
 ------------------------------
 theory_abbreviation b3lyp_d3bj
 ------------------------------
 Symbolic Z-matrix:
 Charge =  0 Multiplicity = 6

 SCF Done:  E(UB3LYP) =  -3034.38212135     A.U. after    1 cycles
 Normal termination of Gaussian 16 at Tue Feb 11 15:02:25 2020.

 ----------------------------------------
 #t pop=none jul-cc-pvdz guess=read ub97d
 ----------------------------------------
 ------------------------
 theory_abbreviation b97d
 ------------------------
 Symbolic Z-matrix:
 Charge =  0 Multiplicity = 6

 SCF Done:  E(UB97D) =  -3034.56472257     A.U. after   15 cycles

 ----------------------------------------------------------------
 #t pop=none jul-cc-pvdz guess=read ub97d empiricaldispersion=gd3
 ----------------------------------------------------------------
 -------------------------
 theory_abbreviation b97d3
 -------------------------
 Symbolic Z-matrix:
 Charge =  0 Multiplicity = 6

 SCF Done:  E(UB97D) =  -3034.56568936     A.U. after    1 cycles
 SCF Done:  E(UBHandHLYP) =  -3033.95517340     A.U. after   17 cycles
 SCF Done:  E(UBHandH) =  -3026.30063111     A.U. after   14 cycles
 SCF Done:  E(ULC-wPBE) =  -3033.44170008     A.U. after   17 cycles
 SCF Done:  E(UB-P86) =  -3034.61986940     A.U. after   15 cycles
 SCF Done:  E(UmPW1LYP) =  -3034.03151262     A.U. after   14 cycles
 SCF Done:  E(UmPW1PBE) =  -3033.87418982     A.U. after   15 cycles
 SCF Done:  E(UmPW3PBE) =  -3033.64663209     A.U. after   13 cycles
 SCF Done:  E(UM11) =  -3033.79452908     A.U. after   17 cycles
 SCF Done:  E(UN12SX) =  -3033.23992746     A.U. after   16 cycles
 SCF Done:  E(UMN12SX) =  -3033.63621929     A.U. after   15 cycles
 SCF Done:  E(UB1B95) =  -3034.36616089     A.U. after   14 cycles
 Normal termination of Gaussian 16 at Tue Feb 11 23:12:14 2020.
 SCF Done:  E(UB3PW91) =  -3033.96204605     A.U. after   13 cycles
 Normal termination of Gaussian 16 at Tue Feb 11 23:25:40 2020.
 SCF Done:  E(UM06L) =  -3034.17745021     A.U. after   18 cycles
 Normal termination of Gaussian 16 at Tue Feb 11 23:45:30 2020.
 Gaussian 16:  ES64L-G16RevA.03 25-Dec-2016

                         Standard orientation:
 ---------------------------------------------------------------------
 Center     Atomic      Atomic             Coordinates (Angstroms)
 Number     Number       Type             X           Y           Z
 ---------------------------------------------------------------------
      1          8           0       -0.384840   -0.168426   -0.513842
      2          6           0       -1.351909   -1.187036   -0.401779
      3          6           0       -2.886467   -0.093990   -0.156059
      4          6           0       -2.042329    1.098662   -0.274565
      5          6           0       -1.908247    1.780601   -1.585830
      6         26           0        1.387445    0.050936    0.043619
      7         17           0        1.845477    2.037247   -0.822939
      8          6           0       -1.581232    1.837604    0.926110
      9         17           0        2.500845   -1.679825   -0.725809
     10         17           0        1.340969    0.129512    2.260213
     11          1           0       -3.489209   -0.257299   -1.050244
     12          1           0       -2.427512    2.466405    1.248594
     13          1           0       -1.324739    1.178471    1.756153
     14          1           0       -0.732998    2.485910    0.699043
     15          1           0       -2.654694    2.592172   -1.594052
     16          1           0       -0.917542    2.228650   -1.696827
     17          1           0       -2.124440    1.115768   -2.423467
     18          6           0       -3.646682   -0.355728    1.128152
     19          1           0       -4.465391    0.363380    1.257392
     20          1           0       -4.091523   -1.354705    1.098982
     21          1           0       -3.010618   -0.301223    2.014518
     22          6           0       -1.160953   -2.071757    0.802493
     23          1           0       -1.984265   -2.782927    0.914418
     24          1           0       -0.233846   -2.641293    0.651747
     25          1           0       -1.039411   -1.493694    1.719919
     26          6           0       -1.518111   -1.926354   -1.706902
     27          1           0       -0.576027   -2.449654   -1.916108
     28          1           0       -2.327963   -2.660632   -1.654097
     29          1           0       -1.703049   -1.236149   -2.533973
 ---------------------------------------------------------------------

 SCF Done:  E(UB97D3) =  -3034.60070561     A.U. after   15 cycles
 Normal termination of Gaussian 16 at Tue Feb 11 23:57:37 2020.
