 Gaussian 16, Revision A.03,

 --------------------------------
 #t pop=none jul-cc-pvdz upbe1pbe
 --------------------------------
 ------------------------
 theory_abbreviation pbe0
 ------------------------
 Symbolic Z-matrix:
 Charge =  0 Multiplicity = 6

 SCF Done:  E(UPBE1PBE) =  -3033.11722494     A.U. after   21 cycles
 Normal termination of Gaussian 16 at Tue Feb 11 14:00:54 2020.

 ---------------------------------------------------------------------
 #t pop=none jul-cc-pvdz guess=read upbe1pbe empiricaldispersion=gd3bj
 ---------------------------------------------------------------------
 -----------------------------
 theory_abbreviation pbe0_d3bj
 -----------------------------
 Symbolic Z-matrix:
 Charge =  0 Multiplicity = 6

 SCF Done:  E(UPBE1PBE) =  -3033.15318973     A.U. after    1 cycles
 Normal termination of Gaussian 16 at Tue Feb 11 14:02:04 2020.

 -----------------------------------------
 #t pop=none jul-cc-pvdz guess=read ub3lyp
 -----------------------------------------
 -------------------------
 theory_abbreviation b3lyp
 -------------------------
 Symbolic Z-matrix:
 Charge =  0 Multiplicity = 6

 SCF Done:  E(UB3LYP) =  -3034.33275758     A.U. after   16 cycles
 Normal termination of Gaussian 16 at Tue Feb 11 14:18:39 2020.

 -------------------------------------------------------------------
 #t pop=none jul-cc-pvdz guess=read ub3lyp empiricaldispersion=gd3bj
 -------------------------------------------------------------------
 ------------------------------
 theory_abbreviation b3lyp_d3bj
 ------------------------------
 Symbolic Z-matrix:
 Charge =  0 Multiplicity = 6

 SCF Done:  E(UB3LYP) =  -3034.39983621     A.U. after    1 cycles
 Normal termination of Gaussian 16 at Tue Feb 11 14:19:48 2020.

 ----------------------------------------
 #t pop=none jul-cc-pvdz guess=read ub97d
 ----------------------------------------
 ------------------------
 theory_abbreviation b97d
 ------------------------
 Symbolic Z-matrix:
 Charge =  0 Multiplicity = 6

 SCF Done:  E(UB97D) =  -3034.58559594     A.U. after   17 cycles

 ----------------------------------------------------------------
 #t pop=none jul-cc-pvdz guess=read ub97d empiricaldispersion=gd3
 ----------------------------------------------------------------
 -------------------------
 theory_abbreviation b97d3
 -------------------------
 Symbolic Z-matrix:
 Charge =  0 Multiplicity = 6

 SCF Done:  E(UB97D) =  -3034.58620664     A.U. after    1 cycles
 SCF Done:  E(UBHandHLYP) =  -3033.97141127     A.U. after   17 cycles
 SCF Done:  E(UBHandH) =  -3026.31439323     A.U. after   16 cycles
 SCF Done:  E(ULC-wPBE) =  -3033.45392495     A.U. after   19 cycles
 SCF Done:  E(UB-P86) =  -3034.63686095     A.U. after   17 cycles
 SCF Done:  E(UmPW1LYP) =  -3034.05029697     A.U. after   16 cycles
 SCF Done:  E(UmPW1PBE) =  -3033.89190862     A.U. after   16 cycles
 SCF Done:  E(UmPW3PBE) =  -3033.66495473     A.U. after   13 cycles
 SCF Done:  E(UM11) =  -3033.81245340     A.U. after   19 cycles
 SCF Done:  E(UN12SX) =  -3033.25647164     A.U. after   17 cycles
 SCF Done:  E(UMN12SX) =  -3033.65326457     A.U. after   17 cycles
 SCF Done:  E(UB1B95) =  -3034.38527213     A.U. after   16 cycles
 Normal termination of Gaussian 16 at Tue Feb 11 23:11:58 2020.
 SCF Done:  E(UB3PW91) =  -3033.98075863     A.U. after   15 cycles
 Normal termination of Gaussian 16 at Tue Feb 11 23:27:36 2020.
 SCF Done:  E(UM06L) =  -3034.19731579     A.U. after   16 cycles
 Normal termination of Gaussian 16 at Tue Feb 11 23:45:19 2020.
 Gaussian 16:  ES64L-G16RevA.03 25-Dec-2016

                         Standard orientation:
 ---------------------------------------------------------------------
 Center     Atomic      Atomic             Coordinates (Angstroms)
 Number     Number       Type             X           Y           Z
 ---------------------------------------------------------------------
      1          8           0        0.287188    0.175717   -0.450191
      2          6           0        1.148882    1.099829   -0.165980
      3          6           0        2.625123    0.169121    0.909657
      4          6           0        3.152702   -0.634173   -0.085582
      5          6           0        4.303062   -0.200811   -0.932115
      6         26           0       -1.561469   -0.168881   -0.110134
      7         17           0       -1.916213   -2.067080   -1.140364
      8          6           0        2.505125   -1.933875   -0.409091
      9         17           0       -2.534246    1.606181   -0.966150
     10         17           0       -1.868775   -0.309688    2.066425
     11          1           0        3.206198    1.060478    1.144147
     12          1           0        3.022201   -2.480429   -1.200551
     13          1           0        2.408941   -2.574388    0.474670
     14          1           0        1.471789   -1.716384   -0.735356
     15          1           0        5.141340   -0.889527   -0.753883
     16          1           0        4.066466   -0.281676   -2.000473
     17          1           0        4.639897    0.813505   -0.707891
     18          6           0        1.855525   -0.444392    2.065395
     19          1           0        2.455662   -1.229094    2.540358
     20          1           0        1.628396    0.301420    2.828240
     21          1           0        0.911845   -0.890677    1.745430
     22          6           0        0.744370    2.106843    0.899950
     23          1           0        1.576304    2.737251    1.220929
     24          1           0       -0.013191    2.744982    0.425280
     25          1           0        0.272632    1.628410    1.757491
     26          6           0        1.835697    1.709747   -1.372577
     27          1           0        1.108500    2.392878   -1.828973
     28          1           0        2.725472    2.285082   -1.106042
     29          1           0        2.082274    0.949563   -2.114794
 ---------------------------------------------------------------------

 SCF Done:  E(UB97D3) =  -3034.62093197     A.U. after   15 cycles
 Normal termination of Gaussian 16 at Tue Feb 11 23:57:08 2020.
