 Gaussian 16, Revision A.03,

 --------------------------------
 #t pop=none jul-cc-pvdz upbe1pbe
 --------------------------------
 ------------------------
 theory_abbreviation pbe0
 ------------------------
 Symbolic Z-matrix:
 Charge =  0 Multiplicity = 6

 SCF Done:  E(UPBE1PBE) =  -3033.13376224     A.U. after   19 cycles
 Normal termination of Gaussian 16 at Tue Feb 11 14:45:51 2020.

 ---------------------------------------------------------------------
 #t pop=none jul-cc-pvdz guess=read upbe1pbe empiricaldispersion=gd3bj
 ---------------------------------------------------------------------
 -----------------------------
 theory_abbreviation pbe0_d3bj
 -----------------------------
 Symbolic Z-matrix:
 Charge =  0 Multiplicity = 6

 SCF Done:  E(UPBE1PBE) =  -3033.17037070     A.U. after    1 cycles
 Normal termination of Gaussian 16 at Tue Feb 11 14:47:02 2020.

 -----------------------------------------
 #t pop=none jul-cc-pvdz guess=read ub3lyp
 -----------------------------------------
 -------------------------
 theory_abbreviation b3lyp
 -------------------------
 Symbolic Z-matrix:
 Charge =  0 Multiplicity = 6

 SCF Done:  E(UB3LYP) =  -3034.35171549     A.U. after   13 cycles
 Normal termination of Gaussian 16 at Tue Feb 11 15:00:46 2020.

 -------------------------------------------------------------------
 #t pop=none jul-cc-pvdz guess=read ub3lyp empiricaldispersion=gd3bj
 -------------------------------------------------------------------
 ------------------------------
 theory_abbreviation b3lyp_d3bj
 ------------------------------
 Symbolic Z-matrix:
 Charge =  0 Multiplicity = 6

 SCF Done:  E(UB3LYP) =  -3034.41958360     A.U. after    1 cycles
 Normal termination of Gaussian 16 at Tue Feb 11 15:01:56 2020.

 ----------------------------------------
 #t pop=none jul-cc-pvdz guess=read ub97d
 ----------------------------------------
 ------------------------
 theory_abbreviation b97d
 ------------------------
 Symbolic Z-matrix:
 Charge =  0 Multiplicity = 6

 SCF Done:  E(UB97D) =  -3034.60316560     A.U. after   15 cycles

 ----------------------------------------------------------------
 #t pop=none jul-cc-pvdz guess=read ub97d empiricaldispersion=gd3
 ----------------------------------------------------------------
 -------------------------
 theory_abbreviation b97d3
 -------------------------
 Symbolic Z-matrix:
 Charge =  0 Multiplicity = 6

 SCF Done:  E(UB97D) =  -3034.60440420     A.U. after    1 cycles
 SCF Done:  E(UBHandHLYP) =  -3033.99312724     A.U. after   15 cycles
 SCF Done:  E(UBHandH) =  -3026.33067632     A.U. after   14 cycles
 SCF Done:  E(ULC-wPBE) =  -3033.47438847     A.U. after   19 cycles
 SCF Done:  E(UB-P86) =  -3034.65240733     A.U. after   16 cycles
 SCF Done:  E(UmPW1LYP) =  -3034.06999608     A.U. after   13 cycles
 SCF Done:  E(UmPW1PBE) =  -3033.90821730     A.U. after   14 cycles
 SCF Done:  E(UmPW3PBE) =  -3033.68122202     A.U. after   13 cycles
 SCF Done:  E(UM11) =  -3033.83192142     A.U. after   17 cycles
 SCF Done:  E(UN12SX) =  -3033.27261567     A.U. after   16 cycles
 SCF Done:  E(UMN12SX) =  -3033.67449032     A.U. after   16 cycles
 SCF Done:  E(UB1B95) =  -3034.40403360     A.U. after   14 cycles
 Normal termination of Gaussian 16 at Tue Feb 11 23:11:49 2020.
 SCF Done:  E(UB3PW91) =  -3033.99734256     A.U. after   13 cycles
 Normal termination of Gaussian 16 at Tue Feb 11 23:24:52 2020.
 SCF Done:  E(UM06L) =  -3034.21941269     A.U. after   17 cycles
 Normal termination of Gaussian 16 at Tue Feb 11 23:43:16 2020.
 Gaussian 16:  ES64L-G16RevA.03 25-Dec-2016

                         Standard orientation:
 ---------------------------------------------------------------------
 Center     Atomic      Atomic             Coordinates (Angstroms)
 Number     Number       Type             X           Y           Z
 ---------------------------------------------------------------------
      1          8           0        0.192980    0.363431   -0.871340
      2          6           0        1.007583    1.301684   -0.676212
      3          6           0        3.000033    0.182008    0.563334
      4          6           0        2.683211   -0.928965   -0.137587
      5          6           0        3.229828   -1.174234   -1.516440
      6         26           0       -1.485235   -0.163929    0.001862
      7         17           0       -2.045925   -2.017504   -0.990425
      8          6           0        1.769387   -2.004910    0.367962
      9         17           0       -2.740909    1.576567   -0.424380
     10         17           0       -1.091995   -0.393646    2.150851
     11          1           0        3.715137    0.867995    0.109334
     12          1           0        2.301273   -2.964887    0.401010
     13          1           0        1.360813   -1.804780    1.357977
     14          1           0        0.930411   -2.143971   -0.327070
     15          1           0        3.791271   -2.117425   -1.532113
     16          1           0        2.415753   -1.289760   -2.244817
     17          1           0        3.900694   -0.378306   -1.851073
     18          6           0        2.728726    0.409861    2.028754
     19          1           0        3.506953   -0.078123    2.630926
     20          1           0        2.758292    1.473362    2.281953
     21          1           0        1.764902    0.011977    2.354734
     22          6           0        0.810844    2.253880    0.463329
     23          1           0        1.696830    2.859950    0.654707
     24          1           0       -0.008491    2.919963    0.153592
     25          1           0        0.486722    1.744362    1.370674
     26          6           0        1.833663    1.754620   -1.844384
     27          1           0        1.227383    2.512203   -2.362543
     28          1           0        2.767730    2.227060   -1.538375
     29          1           0        2.017046    0.939330   -2.541927
 ---------------------------------------------------------------------

 SCF Done:  E(UB97D3) =  -3034.63932885     A.U. after   15 cycles
 Normal termination of Gaussian 16 at Tue Feb 11 23:55:05 2020.
