 Gaussian 16, Revision A.03,

 --------------------------------
 #t pop=none jul-cc-pvdz upbe1pbe
 --------------------------------
 ------------------------
 theory_abbreviation pbe0
 ------------------------
 Symbolic Z-matrix:
 Charge =  0 Multiplicity = 6

 SCF Done:  E(UPBE1PBE) =  -3033.10281126     A.U. after   20 cycles
 Normal termination of Gaussian 16 at Tue Feb 11 13:58:42 2020.

 ---------------------------------------------------------------------
 #t pop=none jul-cc-pvdz guess=read upbe1pbe empiricaldispersion=gd3bj
 ---------------------------------------------------------------------
 -----------------------------
 theory_abbreviation pbe0_d3bj
 -----------------------------
 Symbolic Z-matrix:
 Charge =  0 Multiplicity = 6

 SCF Done:  E(UPBE1PBE) =  -3033.14075971     A.U. after    1 cycles
 Normal termination of Gaussian 16 at Tue Feb 11 13:59:54 2020.

 -----------------------------------------
 #t pop=none jul-cc-pvdz guess=read ub3lyp
 -----------------------------------------
 -------------------------
 theory_abbreviation b3lyp
 -------------------------
 Symbolic Z-matrix:
 Charge =  0 Multiplicity = 6

 SCF Done:  E(UB3LYP) =  -3034.31633183     A.U. after   14 cycles
 Normal termination of Gaussian 16 at Tue Feb 11 14:15:00 2020.

 -------------------------------------------------------------------
 #t pop=none jul-cc-pvdz guess=read ub3lyp empiricaldispersion=gd3bj
 -------------------------------------------------------------------
 ------------------------------
 theory_abbreviation b3lyp_d3bj
 ------------------------------
 Symbolic Z-matrix:
 Charge =  0 Multiplicity = 6

 SCF Done:  E(UB3LYP) =  -3034.38707433     A.U. after    1 cycles
 Normal termination of Gaussian 16 at Tue Feb 11 14:16:11 2020.

 ----------------------------------------
 #t pop=none jul-cc-pvdz guess=read ub97d
 ----------------------------------------
 ------------------------
 theory_abbreviation b97d
 ------------------------
 Symbolic Z-matrix:
 Charge =  0 Multiplicity = 6

 SCF Done:  E(UB97D) =  -3034.56931264     A.U. after   16 cycles

 ----------------------------------------------------------------
 #t pop=none jul-cc-pvdz guess=read ub97d empiricaldispersion=gd3
 ----------------------------------------------------------------
 -------------------------
 theory_abbreviation b97d3
 -------------------------
 Symbolic Z-matrix:
 Charge =  0 Multiplicity = 6

 SCF Done:  E(UB97D) =  -3034.57088229     A.U. after    1 cycles
 SCF Done:  E(UBHandHLYP) =  -3033.95857206     A.U. after   18 cycles
 SCF Done:  E(UBHandH) =  -3026.30533780     A.U. after   14 cycles
 SCF Done:  E(ULC-wPBE) =  -3033.44337894     A.U. after   19 cycles
 SCF Done:  E(UB-P86) =  -3034.62318213     A.U. after   17 cycles
 SCF Done:  E(UmPW1LYP) =  -3034.03452819     A.U. after   15 cycles
 SCF Done:  E(UmPW1PBE) =  -3033.87727004     A.U. after   15 cycles
 SCF Done:  E(UmPW3PBE) =  -3033.64971981     A.U. after   13 cycles
 SCF Done:  E(UM11) =  -3033.80061881     A.U. after   18 cycles
 SCF Done:  E(UN12SX) =  -3033.24245185     A.U. after   17 cycles
 SCF Done:  E(UMN12SX) =  -3033.64212689     A.U. after   15 cycles
 SCF Done:  E(UB1B95) =  -3034.37255587     A.U. after   16 cycles
 Normal termination of Gaussian 16 at Tue Feb 11 22:49:32 2020.
 SCF Done:  E(UB3PW91) =  -3033.96513827     A.U. after   15 cycles
 Normal termination of Gaussian 16 at Tue Feb 11 23:07:06 2020.
 SCF Done:  E(UM06L) =  -3034.18415024     A.U. after   17 cycles
 Normal termination of Gaussian 16 at Tue Feb 11 23:26:25 2020.
 Gaussian 16:  ES64L-G16RevA.03 25-Dec-2016

                         Standard orientation:
 ---------------------------------------------------------------------
 Center     Atomic      Atomic             Coordinates (Angstroms)
 Number     Number       Type             X           Y           Z
 ---------------------------------------------------------------------
      1          8           0       -0.340937   -0.095015   -0.547829
      2          6           0       -1.249394   -1.027271   -0.490772
      3          6           0       -3.092258   -0.005445   -0.063900
      4          6           0       -2.240450    1.063194   -0.211877
      5          6           0       -2.065880    1.743921   -1.530292
      6         26           0        1.447532    0.055272    0.052149
      7         17           0        2.043818    1.999639   -0.778857
      8          6           0       -1.589976    1.737232    0.954041
      9         17           0        2.419256   -1.738305   -0.773130
     10         17           0        1.403037    0.032397    2.260260
     11          1           0       -3.648169   -0.305524   -0.949205
     12          1           0       -2.313402    2.457030    1.364668
     13          1           0       -1.318704    1.050250    1.756620
     14          1           0       -0.698855    2.289991    0.650340
     15          1           0       -2.539332    2.733072   -1.450902
     16          1           0       -1.007337    1.906613   -1.749937
     17          1           0       -2.545976    1.210047   -2.353176
     18          6           0       -3.692555   -0.453255    1.244323
     19          1           0       -4.610734    0.117403    1.436726
     20          1           0       -3.974315   -1.509848    1.216731
     21          1           0       -3.028189   -0.299131    2.097030
     22          6           0       -1.186464   -1.973278    0.678275
     23          1           0       -2.051291   -2.634777    0.737490
     24          1           0       -0.292525   -2.589333    0.501367
     25          1           0       -1.029656   -1.449465    1.621647
     26          6           0       -1.634743   -1.630159   -1.819118
     27          1           0       -0.767962   -2.230840   -2.129046
     28          1           0       -2.508384   -2.281589   -1.748186
     29          1           0       -1.787067   -0.863906   -2.580146
 ---------------------------------------------------------------------

 SCF Done:  E(UB97D3) =  -3034.60678488     A.U. after   15 cycles
 Normal termination of Gaussian 16 at Tue Feb 11 23:38:51 2020.
