 Gaussian 16, Revision A.03,

 --------------------------------
 #t pop=none jul-cc-pvdz upbe1pbe
 --------------------------------
 ------------------------
 theory_abbreviation pbe0
 ------------------------
 Symbolic Z-matrix:
 Charge =  0 Multiplicity = 6

 SCF Done:  E(UPBE1PBE) =  -3033.10682102     A.U. after   20 cycles
 Normal termination of Gaussian 16 at Tue Feb 11 14:00:23 2020.

 ---------------------------------------------------------------------
 #t pop=none jul-cc-pvdz guess=read upbe1pbe empiricaldispersion=gd3bj
 ---------------------------------------------------------------------
 -----------------------------
 theory_abbreviation pbe0_d3bj
 -----------------------------
 Symbolic Z-matrix:
 Charge =  0 Multiplicity = 6

 SCF Done:  E(UPBE1PBE) =  -3033.14451403     A.U. after    1 cycles
 Normal termination of Gaussian 16 at Tue Feb 11 14:01:34 2020.

 -----------------------------------------
 #t pop=none jul-cc-pvdz guess=read ub3lyp
 -----------------------------------------
 -------------------------
 theory_abbreviation b3lyp
 -------------------------
 Symbolic Z-matrix:
 Charge =  0 Multiplicity = 6

 SCF Done:  E(UB3LYP) =  -3034.32048835     A.U. after   13 cycles
 Normal termination of Gaussian 16 at Tue Feb 11 14:15:36 2020.

 -------------------------------------------------------------------
 #t pop=none jul-cc-pvdz guess=read ub3lyp empiricaldispersion=gd3bj
 -------------------------------------------------------------------
 ------------------------------
 theory_abbreviation b3lyp_d3bj
 ------------------------------
 Symbolic Z-matrix:
 Charge =  0 Multiplicity = 6

 SCF Done:  E(UB3LYP) =  -3034.39073325     A.U. after    1 cycles
 Normal termination of Gaussian 16 at Tue Feb 11 14:16:48 2020.

 ----------------------------------------
 #t pop=none jul-cc-pvdz guess=read ub97d
 ----------------------------------------
 ------------------------
 theory_abbreviation b97d
 ------------------------
 Symbolic Z-matrix:
 Charge =  0 Multiplicity = 6

 SCF Done:  E(UB97D) =  -3034.57351327     A.U. after   15 cycles

 ----------------------------------------------------------------
 #t pop=none jul-cc-pvdz guess=read ub97d empiricaldispersion=gd3
 ----------------------------------------------------------------
 -------------------------
 theory_abbreviation b97d3
 -------------------------
 Symbolic Z-matrix:
 Charge =  0 Multiplicity = 6

 SCF Done:  E(UB97D) =  -3034.57459827     A.U. after    1 cycles
 SCF Done:  E(UBHandHLYP) =  -3033.96266420     A.U. after   17 cycles
 SCF Done:  E(UBHandH) =  -3026.30914942     A.U. after   14 cycles
 SCF Done:  E(ULC-wPBE) =  -3033.44716417     A.U. after   18 cycles
 SCF Done:  E(UB-P86) =  -3034.62664164     A.U. after   17 cycles
 SCF Done:  E(UmPW1LYP) =  -3034.03869354     A.U. after   13 cycles
 SCF Done:  E(UmPW1PBE) =  -3033.88126994     A.U. after   13 cycles
 SCF Done:  E(UmPW3PBE) =  -3033.65372946     A.U. after   13 cycles
 SCF Done:  E(UM11) =  -3033.80462121     A.U. after   19 cycles
 SCF Done:  E(UN12SX) =  -3033.24645717     A.U. after   17 cycles
 SCF Done:  E(UMN12SX) =  -3033.64549354     A.U. after   16 cycles
 SCF Done:  E(UB1B95) =  -3034.37583093     A.U. after   16 cycles
 Normal termination of Gaussian 16 at Tue Feb 11 22:59:58 2020.
 SCF Done:  E(UB3PW91) =  -3033.96917535     A.U. after   13 cycles
 Normal termination of Gaussian 16 at Tue Feb 11 23:14:06 2020.
 SCF Done:  E(UM06L) =  -3034.18789438     A.U. after   18 cycles
 Normal termination of Gaussian 16 at Tue Feb 11 23:34:23 2020.
 Gaussian 16:  ES64L-G16RevA.03 25-Dec-2016

                         Standard orientation:
 ---------------------------------------------------------------------
 Center     Atomic      Atomic             Coordinates (Angstroms)
 Number     Number       Type             X           Y           Z
 ---------------------------------------------------------------------
      1          8           0       -0.327179   -0.120648   -0.621461
      2          6           0       -1.252079   -1.036825   -0.548238
      3          6           0       -3.019981   -0.091389    0.076798
      4          6           0       -2.311639    1.059130   -0.182644
      5          6           0       -2.300058    1.693005   -1.533051
      6         26           0        1.435139    0.068217    0.041662
      7         17           0        2.021841    2.037028   -0.737724
      8          6           0       -1.567616    1.801091    0.876559
      9         17           0        2.500980   -1.678193   -0.763800
     10         17           0        1.322698    0.018584    2.251439
     11          1           0       -3.667401   -0.446283   -0.721829
     12          1           0       -2.264467    2.529833    1.317991
     13          1           0       -1.203855    1.163055    1.682213
     14          1           0       -0.725767    2.357345    0.457211
     15          1           0       -2.652337    2.727912   -1.429144
     16          1           0       -1.271404    1.745646   -1.906873
     17          1           0       -2.940319    1.182564   -2.255029
     18          6           0       -3.434339   -0.524935    1.463218
     19          1           0       -4.332291    0.031060    1.762216
     20          1           0       -3.690665   -1.586978    1.490745
     21          1           0       -2.667877   -0.339671    2.218469
     22          6           0       -1.101401   -2.070705    0.540419
     23          1           0       -1.957918   -2.742425    0.609221
     24          1           0       -0.220490   -2.662595    0.252621
     25          1           0       -0.882249   -1.620003    1.508506
     26          6           0       -1.716459   -1.567289   -1.887541
     27          1           0       -0.873117   -2.151248   -2.280086
     28          1           0       -2.586291   -2.222220   -1.802111
     29          1           0       -1.912121   -0.763085   -2.597305
 ---------------------------------------------------------------------

 SCF Done:  E(UB97D3) =  -3034.61013808     A.U. after   15 cycles
 Normal termination of Gaussian 16 at Tue Feb 11 23:46:44 2020.
