 Gaussian 16, Revision A.03,

 --------------------------------
 #t pop=none jul-cc-pvdz upbe1pbe
 --------------------------------
 ------------------------
 theory_abbreviation pbe0
 ------------------------
 Symbolic Z-matrix:
 Charge =  0 Multiplicity = 6

 SCF Done:  E(UPBE1PBE) =  -3033.10792204     A.U. after   21 cycles
 Normal termination of Gaussian 16 at Tue Feb 11 13:56:38 2020.

 ---------------------------------------------------------------------
 #t pop=none jul-cc-pvdz guess=read upbe1pbe empiricaldispersion=gd3bj
 ---------------------------------------------------------------------
 -----------------------------
 theory_abbreviation pbe0_d3bj
 -----------------------------
 Symbolic Z-matrix:
 Charge =  0 Multiplicity = 6

 SCF Done:  E(UPBE1PBE) =  -3033.14457400     A.U. after    1 cycles
 Normal termination of Gaussian 16 at Tue Feb 11 13:58:14 2020.

 -----------------------------------------
 #t pop=none jul-cc-pvdz guess=read ub3lyp
 -----------------------------------------
 -------------------------
 theory_abbreviation b3lyp
 -------------------------
 Symbolic Z-matrix:
 Charge =  0 Multiplicity = 6

 SCF Done:  E(UB3LYP) =  -3034.31786562     A.U. after   15 cycles
 Normal termination of Gaussian 16 at Tue Feb 11 14:13:46 2020.

 -------------------------------------------------------------------
 #t pop=none jul-cc-pvdz guess=read ub3lyp empiricaldispersion=gd3bj
 -------------------------------------------------------------------
 ------------------------------
 theory_abbreviation b3lyp_d3bj
 ------------------------------
 Symbolic Z-matrix:
 Charge =  0 Multiplicity = 6

 SCF Done:  E(UB3LYP) =  -3034.38632455     A.U. after    1 cycles
 Normal termination of Gaussian 16 at Tue Feb 11 14:15:03 2020.

 ----------------------------------------
 #t pop=none jul-cc-pvdz guess=read ub97d
 ----------------------------------------
 ------------------------
 theory_abbreviation b97d
 ------------------------
 Symbolic Z-matrix:
 Charge =  0 Multiplicity = 6

 SCF Done:  E(UB97D) =  -3034.56934126     A.U. after   16 cycles

 ----------------------------------------------------------------
 #t pop=none jul-cc-pvdz guess=read ub97d empiricaldispersion=gd3
 ----------------------------------------------------------------
 -------------------------
 theory_abbreviation b97d3
 -------------------------
 Symbolic Z-matrix:
 Charge =  0 Multiplicity = 6

 SCF Done:  E(UB97D) =  -3034.56962627     A.U. after    1 cycles
 SCF Done:  E(UBHandHLYP) =  -3033.96102510     A.U. after   16 cycles
 SCF Done:  E(UBHandH) =  -3026.31396606     A.U. after   13 cycles
 SCF Done:  E(ULC-wPBE) =  -3033.45069771     A.U. after   17 cycles
 SCF Done:  E(UB-P86) =  -3034.62499847     A.U. after   17 cycles
 SCF Done:  E(UmPW1LYP) =  -3034.03577467     A.U. after   15 cycles
 SCF Done:  E(UmPW1PBE) =  -3033.88227621     A.U. after   15 cycles
 SCF Done:  E(UmPW3PBE) =  -3033.65429680     A.U. after   14 cycles
 SCF Done:  E(UM11) =  -3033.80196374     A.U. after   17 cycles
 SCF Done:  E(UN12SX) =  -3033.24717404     A.U. after   16 cycles
 SCF Done:  E(UMN12SX) =  -3033.64179499     A.U. after   16 cycles
 SCF Done:  E(UB1B95) =  -3034.37367448     A.U. after   15 cycles
 Normal termination of Gaussian 16 at Tue Feb 11 22:41:33 2020.
 SCF Done:  E(UB3PW91) =  -3033.96940281     A.U. after   14 cycles
 Normal termination of Gaussian 16 at Tue Feb 11 22:57:24 2020.
 SCF Done:  E(UM06L) =  -3034.18423683     A.U. after   16 cycles
 Normal termination of Gaussian 16 at Tue Feb 11 23:15:05 2020.
 Gaussian 16:  ES64L-G16RevA.03 25-Dec-2016

                         Standard orientation:
 ---------------------------------------------------------------------
 Center     Atomic      Atomic             Coordinates (Angstroms)
 Number     Number       Type             X           Y           Z
 ---------------------------------------------------------------------
      1          8           0       -0.359587   -0.046672   -0.384276
      2          6           0       -1.288991   -1.052903   -0.273987
      3          6           0       -2.495214   -0.490410    0.614061
      4          6           0       -2.859209    0.759570   -0.031676
      5          6           0       -3.943847    0.795861   -1.045681
      6         26           0        1.469076    0.170046   -0.069349
      7         17           0        1.743339    2.262048   -0.727303
      8          6           0       -2.064510    1.929279    0.175360
      9         17           0        2.531391   -1.364023   -1.234850
     10         17           0        1.754500   -0.039120    2.121216
     11          1           0       -3.305265   -1.217870    0.498987
     12          1           0       -2.386390    2.833662   -0.338698
     13          1           0       -1.720445    2.104369    1.196356
     14          1           0       -1.113684    1.485065   -0.304232
     15          1           0       -4.805417    1.288717   -0.566208
     16          1           0       -3.674144    1.421285   -1.903951
     17          1           0       -4.262145   -0.193537   -1.375529
     18          6           0       -2.090362   -0.341605    2.092230
     19          1           0       -2.811083    0.285454    2.626350
     20          1           0       -2.081078   -1.320211    2.574854
     21          1           0       -1.093689    0.093166    2.195604
     22          6           0       -0.723481   -2.287163    0.456661
     23          1           0       -1.506257   -3.030619    0.639740
     24          1           0        0.040630   -2.731984   -0.187202
     25          1           0       -0.248568   -2.015786    1.399647
     26          6           0       -1.753592   -1.467123   -1.680937
     27          1           0       -0.901962   -1.923806   -2.192072
     28          1           0       -2.571278   -2.196113   -1.649382
     29          1           0       -2.060170   -0.604049   -2.277225
 ---------------------------------------------------------------------

 SCF Done:  E(UB97D3) =  -3034.60469451     A.U. after   16 cycles
 Normal termination of Gaussian 16 at Tue Feb 11 23:28:59 2020.
