 Gaussian 16, Revision A.03,

 --------------------------------
 #t pop=none jul-cc-pvdz upbe1pbe
 --------------------------------
 ------------------------
 theory_abbreviation pbe0
 ------------------------
 Symbolic Z-matrix:
 Charge =  0 Multiplicity = 6

 SCF Done:  E(UPBE1PBE) =  -3033.10953524     A.U. after   22 cycles
 Normal termination of Gaussian 16 at Tue Feb 11 14:46:49 2020.

 ---------------------------------------------------------------------
 #t pop=none jul-cc-pvdz guess=read upbe1pbe empiricaldispersion=gd3bj
 ---------------------------------------------------------------------
 -----------------------------
 theory_abbreviation pbe0_d3bj
 -----------------------------
 Symbolic Z-matrix:
 Charge =  0 Multiplicity = 6

 SCF Done:  E(UPBE1PBE) =  -3033.14609038     A.U. after    1 cycles
 Normal termination of Gaussian 16 at Tue Feb 11 14:48:47 2020.

 -----------------------------------------
 #t pop=none jul-cc-pvdz guess=read ub3lyp
 -----------------------------------------
 -------------------------
 theory_abbreviation b3lyp
 -------------------------
 Symbolic Z-matrix:
 Charge =  0 Multiplicity = 6

 SCF Done:  E(UB3LYP) =  -3034.32129131     A.U. after   15 cycles
 Normal termination of Gaussian 16 at Tue Feb 11 15:05:22 2020.

 -------------------------------------------------------------------
 #t pop=none jul-cc-pvdz guess=read ub3lyp empiricaldispersion=gd3bj
 -------------------------------------------------------------------
 ------------------------------
 theory_abbreviation b3lyp_d3bj
 ------------------------------
 Symbolic Z-matrix:
 Charge =  0 Multiplicity = 6

 SCF Done:  E(UB3LYP) =  -3034.38965194     A.U. after    1 cycles
 Normal termination of Gaussian 16 at Tue Feb 11 15:07:51 2020.

 ----------------------------------------
 #t pop=none jul-cc-pvdz guess=read ub97d
 ----------------------------------------
 ------------------------
 theory_abbreviation b97d
 ------------------------
 Symbolic Z-matrix:
 Charge =  0 Multiplicity = 6

 SCF Done:  E(UB97D) =  -3034.57488481     A.U. after   16 cycles

 ----------------------------------------------------------------
 #t pop=none jul-cc-pvdz guess=read ub97d empiricaldispersion=gd3
 ----------------------------------------------------------------
 -------------------------
 theory_abbreviation b97d3
 -------------------------
 Symbolic Z-matrix:
 Charge =  0 Multiplicity = 6

 SCF Done:  E(UB97D) =  -3034.57531479     A.U. after    1 cycles
 SCF Done:  E(UBHandHLYP) =  -3033.96261017     A.U. after   17 cycles
 SCF Done:  E(UBHandH) =  -3026.31209769     A.U. after   14 cycles
 SCF Done:  E(ULC-wPBE) =  -3033.44983164     A.U. after   17 cycles
 SCF Done:  E(UB-P86) =  -3034.62870613     A.U. after   17 cycles
 SCF Done:  E(UmPW1LYP) =  -3034.03905151     A.U. after   15 cycles
 SCF Done:  E(UmPW1PBE) =  -3033.88390500     A.U. after   15 cycles
 SCF Done:  E(UmPW3PBE) =  -3033.65634850     A.U. after   15 cycles
 SCF Done:  E(UM11) =  -3033.80481223     A.U. after   19 cycles
 SCF Done:  E(UN12SX) =  -3033.24948253     A.U. after   17 cycles
 SCF Done:  E(UMN12SX) =  -3033.64573217     A.U. after   17 cycles
 SCF Done:  E(UB1B95) =  -3034.37681572     A.U. after   16 cycles
 Normal termination of Gaussian 16 at Wed Feb 12 01:25:41 2020.
 SCF Done:  E(UB3PW91) =  -3033.97165591     A.U. after   15 cycles
 Normal termination of Gaussian 16 at Wed Feb 12 01:40:56 2020.
 SCF Done:  E(UM06L) =  -3034.18932109     A.U. after   17 cycles
 Normal termination of Gaussian 16 at Wed Feb 12 01:59:23 2020.
 Gaussian 16:  ES64L-G16RevA.03 25-Dec-2016

                         Standard orientation:
 ---------------------------------------------------------------------
 Center     Atomic      Atomic             Coordinates (Angstroms)
 Number     Number       Type             X           Y           Z
 ---------------------------------------------------------------------
      1          8           0       -0.260875   -0.361035   -0.600757
      2          6           0       -1.307658   -1.143009   -0.266998
      3          6           0       -2.326533   -0.300880    0.801980
      4          6           0       -2.949154    0.702365   -0.013511
      5          6           0       -4.305997    0.507021   -0.577416
      6         26           0        1.479558    0.125312   -0.102904
      7         17           0        2.775935   -0.403033   -1.791199
      8          6           0       -2.172093    1.870254   -0.418465
      9         17           0        2.069649   -0.887129    1.769860
     10         17           0        1.308014    2.318986    0.237033
     11          1           0       -3.054347   -1.054520    1.113728
     12          1           0       -2.692227    2.545283   -1.099033
     13          1           0       -1.740365    2.416234    0.427511
     14          1           0       -1.261076    1.436599   -0.896384
     15          1           0       -4.969753    1.229389   -0.074724
     16          1           0       -4.338109    0.762993   -1.643040
     17          1           0       -4.703325   -0.495496   -0.411819
     18          6           0       -1.501559    0.218996    1.987266
     19          1           0       -2.142725    0.804637    2.654011
     20          1           0       -1.087956   -0.609432    2.561973
     21          1           0       -0.673292    0.848774    1.663482
     22          6           0       -0.903946   -2.400873    0.526206
     23          1           0       -1.780591   -2.984144    0.822902
     24          1           0       -0.287410   -3.011389   -0.141459
     25          1           0       -0.299859   -2.162184    1.399921
     26          6           0       -2.072895   -1.552921   -1.534843
     27          1           0       -1.427232   -2.217248   -2.116020
     28          1           0       -3.000938   -2.087588   -1.306255
     29          1           0       -2.294455   -0.687435   -2.165353
 ---------------------------------------------------------------------

 SCF Done:  E(UB97D3) =  -3034.60926660     A.U. after   16 cycles
 Normal termination of Gaussian 16 at Wed Feb 12 02:12:00 2020.
