 Gaussian 16, Revision A.03,

 --------------------------------
 #t pop=none jul-cc-pvdz upbe1pbe
 --------------------------------
 ------------------------
 theory_abbreviation pbe0
 ------------------------
 Symbolic Z-matrix:
 Charge =  0 Multiplicity = 6

 SCF Done:  E(UPBE1PBE) =  -3033.11038572     A.U. after   21 cycles
 Normal termination of Gaussian 16 at Tue Feb 11 20:07:15 2020.

 ---------------------------------------------------------------------
 #t pop=none jul-cc-pvdz guess=read upbe1pbe empiricaldispersion=gd3bj
 ---------------------------------------------------------------------
 -----------------------------
 theory_abbreviation pbe0_d3bj
 -----------------------------
 Symbolic Z-matrix:
 Charge =  0 Multiplicity = 6

 SCF Done:  E(UPBE1PBE) =  -3033.14674683     A.U. after    1 cycles
 Normal termination of Gaussian 16 at Tue Feb 11 20:08:29 2020.

 -----------------------------------------
 #t pop=none jul-cc-pvdz guess=read ub3lyp
 -----------------------------------------
 -------------------------
 theory_abbreviation b3lyp
 -------------------------
 Symbolic Z-matrix:
 Charge =  0 Multiplicity = 6

 SCF Done:  E(UB3LYP) =  -3034.32256731     A.U. after   15 cycles
 Normal termination of Gaussian 16 at Tue Feb 11 20:24:42 2020.

 -------------------------------------------------------------------
 #t pop=none jul-cc-pvdz guess=read ub3lyp empiricaldispersion=gd3bj
 -------------------------------------------------------------------
 ------------------------------
 theory_abbreviation b3lyp_d3bj
 ------------------------------
 Symbolic Z-matrix:
 Charge =  0 Multiplicity = 6

 SCF Done:  E(UB3LYP) =  -3034.39039813     A.U. after    1 cycles
 Normal termination of Gaussian 16 at Tue Feb 11 20:25:59 2020.

 ----------------------------------------
 #t pop=none jul-cc-pvdz guess=read ub97d
 ----------------------------------------
 ------------------------
 theory_abbreviation b97d
 ------------------------
 Symbolic Z-matrix:
 Charge =  0 Multiplicity = 6

 SCF Done:  E(UB97D) =  -3034.57443016     A.U. after   16 cycles

 ----------------------------------------------------------------
 #t pop=none jul-cc-pvdz guess=read ub97d empiricaldispersion=gd3
 ----------------------------------------------------------------
 -------------------------
 theory_abbreviation b97d3
 -------------------------
 Symbolic Z-matrix:
 Charge =  0 Multiplicity = 6

 SCF Done:  E(UB97D) =  -3034.57489742     A.U. after    3 cycles
 SCF Done:  E(UBHandHLYP) =  -3033.96418029     A.U. after   17 cycles
 SCF Done:  E(UBHandH) =  -3026.31316652     A.U. after   16 cycles
 SCF Done:  E(ULC-wPBE) =  -3033.45016582     A.U. after   18 cycles
 SCF Done:  E(UB-P86) =  -3034.62819423     A.U. after   17 cycles
 SCF Done:  E(UmPW1LYP) =  -3034.04046336     A.U. after   15 cycles
 SCF Done:  E(UmPW1PBE) =  -3033.88480419     A.U. after   15 cycles
 SCF Done:  E(UmPW3PBE) =  -3033.65720086     A.U. after   15 cycles
 SCF Done:  E(UM11) =  -3033.80571153     A.U. after   16 cycles
 SCF Done:  E(UN12SX) =  -3033.25011529     A.U. after   17 cycles
 SCF Done:  E(UMN12SX) =  -3033.64577180     A.U. after   16 cycles
 SCF Done:  E(UB1B95) =  -3034.37721644     A.U. after   16 cycles
 Normal termination of Gaussian 16 at Wed Feb 12 05:30:39 2020.
 SCF Done:  E(UB3PW91) =  -3033.97253435     A.U. after   15 cycles
 Normal termination of Gaussian 16 at Wed Feb 12 05:47:01 2020.
 SCF Done:  E(UM06L) =  -3034.18918284     A.U. after   16 cycles
 Normal termination of Gaussian 16 at Wed Feb 12 06:05:29 2020.
 Gaussian 16:  ES64L-G16RevA.03 25-Dec-2016

                         Standard orientation:
 ---------------------------------------------------------------------
 Center     Atomic      Atomic             Coordinates (Angstroms)
 Number     Number       Type             X           Y           Z
 ---------------------------------------------------------------------
      1          8           0       -0.351789   -0.114594   -0.462182
      2          6           0       -1.232534   -1.101922   -0.314053
      3          6           0       -2.579236   -0.423923    0.669160
      4          6           0       -2.819891    0.761299   -0.057471
      5          6           0       -3.788894    0.792814   -1.185649
      6         26           0        1.460548    0.170716   -0.073676
      7         17           0        1.745095    2.228022   -0.817028
      8          6           0       -2.056140    1.982312    0.203001
      9         17           0        2.570389   -1.415058   -1.118043
     10         17           0        1.680021    0.060905    2.129130
     11          1           0       -3.350576   -1.181213    0.517816
     12          1           0       -2.450238    2.861880   -0.308909
     13          1           0       -1.891130    2.178361    1.265059
     14          1           0       -1.049494    1.751098   -0.210507
     15          1           0       -4.605483    1.472795   -0.899974
     16          1           0       -3.332120    1.232430   -2.081501
     17          1           0       -4.216548   -0.182200   -1.420677
     18          6           0       -2.113812   -0.289492    2.117003
     19          1           0       -2.797920    0.361458    2.672091
     20          1           0       -2.113336   -1.263056    2.609321
     21          1           0       -1.105417    0.124786    2.187442
     22          6           0       -0.742234   -2.281926    0.531779
     23          1           0       -1.543815   -2.995113    0.744409
     24          1           0        0.027167   -2.786524   -0.063749
     25          1           0       -0.276668   -1.954364    1.460631
     26          6           0       -1.785198   -1.582585   -1.656518
     27          1           0       -0.981604   -2.141263   -2.147311
     28          1           0       -2.647021   -2.247694   -1.542957
     29          1           0       -2.041689   -0.748464   -2.310677
 ---------------------------------------------------------------------

 SCF Done:  E(UB97D3) =  -3034.60923170     A.U. after   16 cycles
 Normal termination of Gaussian 16 at Wed Feb 12 06:18:55 2020.
