 Gaussian 16, Revision A.03,

 --------------------------------
 #t pop=none jul-cc-pvdz upbe1pbe
 --------------------------------
 ------------------------
 theory_abbreviation pbe0
 ------------------------
 Symbolic Z-matrix:
 Charge =  0 Multiplicity = 6

 SCF Done:  E(UPBE1PBE) =  -3033.10583908     A.U. after   21 cycles
 Normal termination of Gaussian 16 at Tue Feb 11 20:06:18 2020.

 ---------------------------------------------------------------------
 #t pop=none jul-cc-pvdz guess=read upbe1pbe empiricaldispersion=gd3bj
 ---------------------------------------------------------------------
 -----------------------------
 theory_abbreviation pbe0_d3bj
 -----------------------------
 Symbolic Z-matrix:
 Charge =  0 Multiplicity = 6

 SCF Done:  E(UPBE1PBE) =  -3033.14249811     A.U. after    1 cycles
 Normal termination of Gaussian 16 at Tue Feb 11 20:07:29 2020.

 -----------------------------------------
 #t pop=none jul-cc-pvdz guess=read ub3lyp
 -----------------------------------------
 -------------------------
 theory_abbreviation b3lyp
 -------------------------
 Symbolic Z-matrix:
 Charge =  0 Multiplicity = 6

 SCF Done:  E(UB3LYP) =  -3034.31707280     A.U. after   15 cycles
 Normal termination of Gaussian 16 at Tue Feb 11 20:23:13 2020.

 -------------------------------------------------------------------
 #t pop=none jul-cc-pvdz guess=read ub3lyp empiricaldispersion=gd3bj
 -------------------------------------------------------------------
 ------------------------------
 theory_abbreviation b3lyp_d3bj
 ------------------------------
 Symbolic Z-matrix:
 Charge =  0 Multiplicity = 6

 SCF Done:  E(UB3LYP) =  -3034.38567370     A.U. after    1 cycles
 Normal termination of Gaussian 16 at Tue Feb 11 20:24:24 2020.

 ----------------------------------------
 #t pop=none jul-cc-pvdz guess=read ub97d
 ----------------------------------------
 ------------------------
 theory_abbreviation b97d
 ------------------------
 Symbolic Z-matrix:
 Charge =  0 Multiplicity = 6

 SCF Done:  E(UB97D) =  -3034.57054299     A.U. after   17 cycles

 ----------------------------------------------------------------
 #t pop=none jul-cc-pvdz guess=read ub97d empiricaldispersion=gd3
 ----------------------------------------------------------------
 -------------------------
 theory_abbreviation b97d3
 -------------------------
 Symbolic Z-matrix:
 Charge =  0 Multiplicity = 6

 SCF Done:  E(UB97D) =  -3034.57099657     A.U. after    3 cycles
 SCF Done:  E(UBHandHLYP) =  -3033.95945638     A.U. after   16 cycles
 SCF Done:  E(UBHandH) =  -3026.30977040     A.U. after   13 cycles
 SCF Done:  E(ULC-wPBE) =  -3033.44756625     A.U. after   17 cycles
 SCF Done:  E(UB-P86) =  -3034.62497123     A.U. after   18 cycles
 SCF Done:  E(UmPW1LYP) =  -3034.03493200     A.U. after   15 cycles
 SCF Done:  E(UmPW1PBE) =  -3033.88017504     A.U. after   15 cycles
 SCF Done:  E(UmPW3PBE) =  -3033.65247755     A.U. after   14 cycles
 SCF Done:  E(UM11) =  -3033.80088958     A.U. after   18 cycles
 SCF Done:  E(UN12SX) =  -3033.24568536     A.U. after   17 cycles
 SCF Done:  E(UMN12SX) =  -3033.64206131     A.U. after   16 cycles
 SCF Done:  E(UB1B95) =  -3034.37279473     A.U. after   16 cycles
 Normal termination of Gaussian 16 at Wed Feb 12 04:59:54 2020.
 SCF Done:  E(UB3PW91) =  -3033.96773295     A.U. after   15 cycles
 Normal termination of Gaussian 16 at Wed Feb 12 05:14:31 2020.
 SCF Done:  E(UM06L) =  -3034.18521378     A.U. after   18 cycles
 Normal termination of Gaussian 16 at Wed Feb 12 05:35:37 2020.
 Gaussian 16:  ES64L-G16RevA.03 25-Dec-2016

                         Standard orientation:
 ---------------------------------------------------------------------
 Center     Atomic      Atomic             Coordinates (Angstroms)
 Number     Number       Type             X           Y           Z
 ---------------------------------------------------------------------
      1          8           0       -0.226075   -0.388714   -0.656331
      2          6           0       -1.322147   -1.138106   -0.311080
      3          6           0       -2.273932   -0.363926    0.715933
      4          6           0       -2.941780    0.711184   -0.012032
      5          6           0       -4.352984    0.591667   -0.433606
      6         26           0        1.477080    0.121793   -0.093986
      7         17           0        2.836186   -0.249066   -1.775911
      8          6           0       -2.143321    1.845549   -0.444338
      9         17           0        2.058398   -0.973370    1.736901
     10         17           0        1.246872    2.297227    0.373762
     11          1           0       -3.021160   -1.102488    1.023501
     12          1           0       -2.665157    2.564225   -1.076494
     13          1           0       -1.614006    2.343813    0.377776
     14          1           0       -1.275101    1.370891   -0.970702
     15          1           0       -4.937838    1.238787    0.243064
     16          1           0       -4.511908    0.989452   -1.441969
     17          1           0       -4.743549   -0.423652   -0.346096
     18          6           0       -1.489531    0.130295    1.950145
     19          1           0       -2.160891    0.659271    2.633738
     20          1           0       -1.061277   -0.717181    2.485470
     21          1           0       -0.675000    0.799390    1.674621
     22          6           0       -0.911526   -2.448750    0.397279
     23          1           0       -1.788751   -3.037562    0.683706
     24          1           0       -0.316164   -3.028895   -0.313649
     25          1           0       -0.288371   -2.262884    1.271252
     26          6           0       -2.090179   -1.489802   -1.601807
     27          1           0       -1.447333   -2.117152   -2.224162
     28          1           0       -3.015621   -2.039286   -1.394496
     29          1           0       -2.325681   -0.593731   -2.185013
 ---------------------------------------------------------------------

 SCF Done:  E(UB97D3) =  -3034.60513270     A.U. after   17 cycles
 Normal termination of Gaussian 16 at Wed Feb 12 05:49:58 2020.
