 Gaussian 16, Revision A.03,

 --------------------------------
 #t pop=none jul-cc-pvdz upbe1pbe
 --------------------------------
 ------------------------
 theory_abbreviation pbe0
 ------------------------
 Symbolic Z-matrix:
 Charge =  0 Multiplicity = 6

 SCF Done:  E(UPBE1PBE) =  -3033.10366400     A.U. after   20 cycles
 Normal termination of Gaussian 16 at Tue Feb 11 13:57:59 2020.

 ---------------------------------------------------------------------
 #t pop=none jul-cc-pvdz guess=read upbe1pbe empiricaldispersion=gd3bj
 ---------------------------------------------------------------------
 -----------------------------
 theory_abbreviation pbe0_d3bj
 -----------------------------
 Symbolic Z-matrix:
 Charge =  0 Multiplicity = 6

 SCF Done:  E(UPBE1PBE) =  -3033.14169866     A.U. after    1 cycles
 Normal termination of Gaussian 16 at Tue Feb 11 13:59:10 2020.

 -----------------------------------------
 #t pop=none jul-cc-pvdz guess=read ub3lyp
 -----------------------------------------
 -------------------------
 theory_abbreviation b3lyp
 -------------------------
 Symbolic Z-matrix:
 Charge =  0 Multiplicity = 6

 SCF Done:  E(UB3LYP) =  -3034.31743916     A.U. after   14 cycles
 Normal termination of Gaussian 16 at Tue Feb 11 14:13:53 2020.

 -------------------------------------------------------------------
 #t pop=none jul-cc-pvdz guess=read ub3lyp empiricaldispersion=gd3bj
 -------------------------------------------------------------------
 ------------------------------
 theory_abbreviation b3lyp_d3bj
 ------------------------------
 Symbolic Z-matrix:
 Charge =  0 Multiplicity = 6

 SCF Done:  E(UB3LYP) =  -3034.38834440     A.U. after    1 cycles
 Normal termination of Gaussian 16 at Tue Feb 11 14:15:03 2020.

 ----------------------------------------
 #t pop=none jul-cc-pvdz guess=read ub97d
 ----------------------------------------
 ------------------------
 theory_abbreviation b97d
 ------------------------
 Symbolic Z-matrix:
 Charge =  0 Multiplicity = 6

 SCF Done:  E(UB97D) =  -3034.57055142     A.U. after   16 cycles

 ----------------------------------------------------------------
 #t pop=none jul-cc-pvdz guess=read ub97d empiricaldispersion=gd3
 ----------------------------------------------------------------
 -------------------------
 theory_abbreviation b97d3
 -------------------------
 Symbolic Z-matrix:
 Charge =  0 Multiplicity = 6

 SCF Done:  E(UB97D) =  -3034.57229954     A.U. after    1 cycles
 SCF Done:  E(UBHandHLYP) =  -3033.95951955     A.U. after   18 cycles
 SCF Done:  E(UBHandH) =  -3026.30594742     A.U. after   15 cycles
 SCF Done:  E(ULC-wPBE) =  -3033.44427593     A.U. after   19 cycles
 SCF Done:  E(UB-P86) =  -3034.62437340     A.U. after   17 cycles
 SCF Done:  E(UmPW1LYP) =  -3034.03560994     A.U. after   14 cycles
 SCF Done:  E(UmPW1PBE) =  -3033.87812793     A.U. after   15 cycles
 SCF Done:  E(UmPW3PBE) =  -3033.65063674     A.U. after   13 cycles
 SCF Done:  E(UM11) =  -3033.80141692     A.U. after   17 cycles
 SCF Done:  E(UN12SX) =  -3033.24316096     A.U. after   17 cycles
 SCF Done:  E(UMN12SX) =  -3033.64320093     A.U. after   15 cycles
 SCF Done:  E(UB1B95) =  -3034.37366764     A.U. after   15 cycles
 Normal termination of Gaussian 16 at Tue Feb 11 22:34:05 2020.
 SCF Done:  E(UB3PW91) =  -3033.96608804     A.U. after   15 cycles
 Normal termination of Gaussian 16 at Tue Feb 11 22:49:44 2020.
 SCF Done:  E(UM06L) =  -3034.18564910     A.U. after   17 cycles
 Normal termination of Gaussian 16 at Tue Feb 11 23:09:45 2020.
 Gaussian 16:  ES64L-G16RevA.03 25-Dec-2016

                         Standard orientation:
 ---------------------------------------------------------------------
 Center     Atomic      Atomic             Coordinates (Angstroms)
 Number     Number       Type             X           Y           Z
 ---------------------------------------------------------------------
      1          8           0       -0.341191   -0.091655   -0.548616
      2          6           0       -1.233848   -1.029559   -0.495247
      3          6           0       -3.121058    0.012752   -0.057039
      4          6           0       -2.246968    1.056490   -0.213589
      5          6           0       -2.072456    1.733419   -1.535886
      6         26           0        1.453174    0.057517    0.054686
      7         17           0        2.061909    1.992626   -0.781523
      8          6           0       -1.585734    1.732089    0.947550
      9         17           0        2.405063   -1.744670   -0.774104
     10         17           0        1.412033    0.030922    2.260430
     11          1           0       -3.673853   -0.296158   -0.941351
     12          1           0       -2.296594    2.466428    1.353488
     13          1           0       -1.321880    1.048914    1.755916
     14          1           0       -0.687327    2.269909    0.638359
     15          1           0       -2.528316    2.730450   -1.455572
     16          1           0       -1.014038    1.878086   -1.767915
     17          1           0       -2.569697    1.206329   -2.353262
     18          6           0       -3.709772   -0.440034    1.253254
     19          1           0       -4.632410    0.122139    1.450332
     20          1           0       -3.983039   -1.499255    1.229336
     21          1           0       -3.042779   -0.278093    2.102581
     22          6           0       -1.188821   -1.965563    0.680427
     23          1           0       -2.059649   -2.619097    0.736966
     24          1           0       -0.298658   -2.590793    0.515740
     25          1           0       -1.035058   -1.435099    1.620521
     26          6           0       -1.636812   -1.624528   -1.819801
     27          1           0       -0.778408   -2.234189   -2.136543
     28          1           0       -2.515788   -2.267643   -1.742901
     29          1           0       -1.785760   -0.855427   -2.578274
 ---------------------------------------------------------------------

 SCF Done:  E(UB97D3) =  -3034.60831764     A.U. after   15 cycles
 Normal termination of Gaussian 16 at Tue Feb 11 23:21:55 2020.
