 Gaussian 16, Revision A.03,

 --------------------------------
 #t pop=none jul-cc-pvdz upbe1pbe
 --------------------------------
 ------------------------
 theory_abbreviation pbe0
 ------------------------
 Symbolic Z-matrix:
 Charge =  0 Multiplicity = 6

 SCF Done:  E(UPBE1PBE) =  -3033.11118135     A.U. after   21 cycles
 Normal termination of Gaussian 16 at Tue Feb 11 13:57:11 2020.

 ---------------------------------------------------------------------
 #t pop=none jul-cc-pvdz guess=read upbe1pbe empiricaldispersion=gd3bj
 ---------------------------------------------------------------------
 -----------------------------
 theory_abbreviation pbe0_d3bj
 -----------------------------
 Symbolic Z-matrix:
 Charge =  0 Multiplicity = 6

 SCF Done:  E(UPBE1PBE) =  -3033.14745363     A.U. after    1 cycles
 Normal termination of Gaussian 16 at Tue Feb 11 13:58:20 2020.

 -----------------------------------------
 #t pop=none jul-cc-pvdz guess=read ub3lyp
 -----------------------------------------
 -------------------------
 theory_abbreviation b3lyp
 -------------------------
 Symbolic Z-matrix:
 Charge =  0 Multiplicity = 6

 SCF Done:  E(UB3LYP) =  -3034.32275902     A.U. after   15 cycles
 Normal termination of Gaussian 16 at Tue Feb 11 14:13:41 2020.

 -------------------------------------------------------------------
 #t pop=none jul-cc-pvdz guess=read ub3lyp empiricaldispersion=gd3bj
 -------------------------------------------------------------------
 ------------------------------
 theory_abbreviation b3lyp_d3bj
 ------------------------------
 Symbolic Z-matrix:
 Charge =  0 Multiplicity = 6

 SCF Done:  E(UB3LYP) =  -3034.39046772     A.U. after    1 cycles
 Normal termination of Gaussian 16 at Tue Feb 11 14:14:51 2020.

 ----------------------------------------
 #t pop=none jul-cc-pvdz guess=read ub97d
 ----------------------------------------
 ------------------------
 theory_abbreviation b97d
 ------------------------
 Symbolic Z-matrix:
 Charge =  0 Multiplicity = 6

 SCF Done:  E(UB97D) =  -3034.57461836     A.U. after   16 cycles

 ----------------------------------------------------------------
 #t pop=none jul-cc-pvdz guess=read ub97d empiricaldispersion=gd3
 ----------------------------------------------------------------
 -------------------------
 theory_abbreviation b97d3
 -------------------------
 Symbolic Z-matrix:
 Charge =  0 Multiplicity = 6

 SCF Done:  E(UB97D) =  -3034.57492381     A.U. after    1 cycles
 SCF Done:  E(UBHandHLYP) =  -3033.96462881     A.U. after   17 cycles
 SCF Done:  E(UBHandH) =  -3026.31445775     A.U. after   14 cycles
 SCF Done:  E(ULC-wPBE) =  -3033.45168866     A.U. after   17 cycles
 SCF Done:  E(UB-P86) =  -3034.62906282     A.U. after   17 cycles
 SCF Done:  E(UmPW1LYP) =  -3034.04056685     A.U. after   15 cycles
 SCF Done:  E(UmPW1PBE) =  -3033.88560983     A.U. after   15 cycles
 SCF Done:  E(UmPW3PBE) =  -3033.65793878     A.U. after   14 cycles
 SCF Done:  E(UM11) =  -3033.80527890     A.U. after   18 cycles
 SCF Done:  E(UN12SX) =  -3033.25072454     A.U. after   17 cycles
 SCF Done:  E(UMN12SX) =  -3033.64573337     A.U. after   16 cycles
 SCF Done:  E(UB1B95) =  -3034.37730343     A.U. after   16 cycles
 Normal termination of Gaussian 16 at Tue Feb 11 22:45:46 2020.
 SCF Done:  E(UB3PW91) =  -3033.97324168     A.U. after   15 cycles
 Normal termination of Gaussian 16 at Tue Feb 11 23:02:29 2020.
 SCF Done:  E(UM06L) =  -3034.18908227     A.U. after   17 cycles
 Normal termination of Gaussian 16 at Tue Feb 11 23:21:08 2020.
 Gaussian 16:  ES64L-G16RevA.03 25-Dec-2016

                         Standard orientation:
 ---------------------------------------------------------------------
 Center     Atomic      Atomic             Coordinates (Angstroms)
 Number     Number       Type             X           Y           Z
 ---------------------------------------------------------------------
      1          8           0       -0.334947   -0.086809   -0.407113
      2          6           0       -1.256249   -1.060994   -0.249137
      3          6           0       -2.516015   -0.428992    0.701421
      4          6           0       -2.938012    0.720712   -0.040471
      5          6           0       -4.052726    0.638285   -1.017360
      6         26           0        1.487851    0.173051   -0.083521
      7         17           0        1.765348    2.239266   -0.807204
      8          6           0       -2.168618    1.949329    0.035744
      9         17           0        2.539836   -1.405446   -1.200185
     10         17           0        1.799697    0.020538    2.105830
     11          1           0       -3.271686   -1.218312    0.673403
     12          1           0       -2.570558    2.781115   -0.543251
     13          1           0       -1.901697    2.247719    1.053038
     14          1           0       -1.185255    1.606884   -0.395053
     15          1           0       -4.888023    1.226927   -0.605561
     16          1           0       -3.786759    1.118370   -1.966778
     17          1           0       -4.402948   -0.380035   -1.189926
     18          6           0       -1.998126   -0.160306    2.121015
     19          1           0       -2.684370    0.501785    2.658697
     20          1           0       -1.935466   -1.095296    2.679567
     21          1           0       -1.004185    0.291468    2.111298
     22          6           0       -0.732717   -2.264432    0.554559
     23          1           0       -1.530042   -2.979693    0.778592
     24          1           0        0.019477   -2.758282   -0.069210
     25          1           0       -0.243888   -1.952759    1.477553
     26          6           0       -1.789998   -1.524049   -1.610827
     27          1           0       -0.975359   -2.044825   -2.122467
     28          1           0       -2.635588   -2.213658   -1.515254
     29          1           0       -2.076409   -0.677646   -2.239355
 ---------------------------------------------------------------------

 SCF Done:  E(UB97D3) =  -3034.60957611     A.U. after   16 cycles
 Normal termination of Gaussian 16 at Tue Feb 11 23:33:53 2020.
