 Gaussian 16, Revision A.03,

 --------------------------------
 #t pop=none jul-cc-pvdz upbe1pbe
 --------------------------------
 ------------------------
 theory_abbreviation pbe0
 ------------------------
 Symbolic Z-matrix:
 Charge =  0 Multiplicity = 6

 SCF Done:  E(UPBE1PBE) =  -3033.11512362     A.U. after   20 cycles
 Normal termination of Gaussian 16 at Tue Feb 11 23:38:34 2020.

 ---------------------------------------------------------------------
 #t pop=none jul-cc-pvdz guess=read upbe1pbe empiricaldispersion=gd3bj
 ---------------------------------------------------------------------
 -----------------------------
 theory_abbreviation pbe0_d3bj
 -----------------------------
 Symbolic Z-matrix:
 Charge =  0 Multiplicity = 6

 SCF Done:  E(UPBE1PBE) =  -3033.15295020     A.U. after    1 cycles
 Normal termination of Gaussian 16 at Tue Feb 11 23:39:44 2020.

 -----------------------------------------
 #t pop=none jul-cc-pvdz guess=read ub3lyp
 -----------------------------------------
 -------------------------
 theory_abbreviation b3lyp
 -------------------------
 Symbolic Z-matrix:
 Charge =  0 Multiplicity = 6

 SCF Done:  E(UB3LYP) =  -3034.32982850     A.U. after   13 cycles
 Normal termination of Gaussian 16 at Tue Feb 11 23:53:12 2020.

 -------------------------------------------------------------------
 #t pop=none jul-cc-pvdz guess=read ub3lyp empiricaldispersion=gd3bj
 -------------------------------------------------------------------
 ------------------------------
 theory_abbreviation b3lyp_d3bj
 ------------------------------
 Symbolic Z-matrix:
 Charge =  0 Multiplicity = 6

 SCF Done:  E(UB3LYP) =  -3034.40033146     A.U. after    1 cycles
 Normal termination of Gaussian 16 at Tue Feb 11 23:54:22 2020.

 ----------------------------------------
 #t pop=none jul-cc-pvdz guess=read ub97d
 ----------------------------------------
 ------------------------
 theory_abbreviation b97d
 ------------------------
 Symbolic Z-matrix:
 Charge =  0 Multiplicity = 6

 SCF Done:  E(UB97D) =  -3034.58369759     A.U. after   15 cycles

 ----------------------------------------------------------------
 #t pop=none jul-cc-pvdz guess=read ub97d empiricaldispersion=gd3
 ----------------------------------------------------------------
 -------------------------
 theory_abbreviation b97d3
 -------------------------
 Symbolic Z-matrix:
 Charge =  0 Multiplicity = 6

 SCF Done:  E(UB97D) =  -3034.58482412     A.U. after    1 cycles
 SCF Done:  E(UBHandHLYP) =  -3033.97118074     A.U. after   17 cycles
 SCF Done:  E(UBHandH) =  -3026.31618563     A.U. after   16 cycles
 SCF Done:  E(ULC-wPBE) =  -3033.45540668     A.U. after   19 cycles
 SCF Done:  E(UB-P86) =  -3034.63587895     A.U. after   17 cycles
 SCF Done:  E(UmPW1LYP) =  -3034.04797272     A.U. after   13 cycles
 SCF Done:  E(UmPW1PBE) =  -3033.88951946     A.U. after   13 cycles
 SCF Done:  E(UmPW3PBE) =  -3033.66222191     A.U. after   13 cycles
 SCF Done:  E(UM11) =  -3033.81307517     A.U. after   19 cycles
 SCF Done:  E(UN12SX) =  -3033.25442070     A.U. after   17 cycles
 SCF Done:  E(UMN12SX) =  -3033.65425451     A.U. after   16 cycles
 SCF Done:  E(UB1B95) =  -3034.38455761     A.U. after   16 cycles
 Normal termination of Gaussian 16 at Wed Feb 12 08:33:02 2020.
 SCF Done:  E(UB3PW91) =  -3033.97778676     A.U. after   15 cycles
 Normal termination of Gaussian 16 at Wed Feb 12 08:48:02 2020.
 SCF Done:  E(UM06L) =  -3034.19810599     A.U. after   17 cycles
 Normal termination of Gaussian 16 at Wed Feb 12 09:06:42 2020.
 Gaussian 16:  ES64L-G16RevA.03 25-Dec-2016

                         Standard orientation:
 ---------------------------------------------------------------------
 Center     Atomic      Atomic             Coordinates (Angstroms)
 Number     Number       Type             X           Y           Z
 ---------------------------------------------------------------------
      1          8           0       -0.309791   -0.165384   -0.737624
      2          6           0       -1.195454   -1.090063   -0.615850
      3          6           0       -2.951589   -0.162455    0.330477
      4          6           0       -2.436284    1.008936   -0.146879
      5          6           0       -2.725994    1.504139   -1.528030
      6         26           0        1.431204    0.102273    0.019177
      7         17           0        2.054206    2.045439   -0.771885
      8          6           0       -1.569872    1.911701    0.667372
      9         17           0        2.567406   -1.635505   -0.691895
     10         17           0        1.208152    0.092240    2.219490
     11          1           0       -3.684190   -0.666594   -0.296365
     12          1           0       -2.188547    2.751596    1.016305
     13          1           0       -1.131310    1.432963    1.541611
     14          1           0       -0.767805    2.339426    0.057411
     15          1           0       -3.084184    2.539532   -1.469166
     16          1           0       -1.797630    1.530511   -2.112913
     17          1           0       -3.478070    0.909063   -2.050272
     18          6           0       -3.002747   -0.524889    1.795882
     19          1           0       -3.832522    0.011795    2.273779
     20          1           0       -3.187447   -1.592277    1.938663
     21          1           0       -2.089506   -0.262822    2.334902
     22          6           0       -0.972791   -2.164907    0.417426
     23          1           0       -1.837046   -2.820467    0.532150
     24          1           0       -0.133360   -2.761717    0.032019
     25          1           0       -0.664492   -1.758850    1.380129
     26          6           0       -1.831788   -1.556730   -1.905435
     27          1           0       -1.070962   -2.181344   -2.393173
     28          1           0       -2.721104   -2.167627   -1.740258
     29          1           0       -2.051661   -0.730552   -2.579274
 ---------------------------------------------------------------------

 SCF Done:  E(UB97D3) =  -3034.62038428     A.U. after   15 cycles
 Normal termination of Gaussian 16 at Wed Feb 12 09:19:02 2020.
