 Gaussian 16, Revision A.03,

 --------------------------------
 #t pop=none jul-cc-pvdz upbe1pbe
 --------------------------------
 ------------------------
 theory_abbreviation pbe0
 ------------------------
 Symbolic Z-matrix:
 Charge =  0 Multiplicity = 6

 SCF Done:  E(UPBE1PBE) =  -3033.11738979     A.U. after   19 cycles
 Normal termination of Gaussian 16 at Tue Feb 11 13:55:41 2020.

 ---------------------------------------------------------------------
 #t pop=none jul-cc-pvdz guess=read upbe1pbe empiricaldispersion=gd3bj
 ---------------------------------------------------------------------
 -----------------------------
 theory_abbreviation pbe0_d3bj
 -----------------------------
 Symbolic Z-matrix:
 Charge =  0 Multiplicity = 6

 SCF Done:  E(UPBE1PBE) =  -3033.15428238     A.U. after    1 cycles
 Normal termination of Gaussian 16 at Tue Feb 11 13:56:54 2020.

 -----------------------------------------
 #t pop=none jul-cc-pvdz guess=read ub3lyp
 -----------------------------------------
 -------------------------
 theory_abbreviation b3lyp
 -------------------------
 Symbolic Z-matrix:
 Charge =  0 Multiplicity = 6

 SCF Done:  E(UB3LYP) =  -3034.33033441     A.U. after   13 cycles
 Normal termination of Gaussian 16 at Tue Feb 11 14:10:35 2020.

 -------------------------------------------------------------------
 #t pop=none jul-cc-pvdz guess=read ub3lyp empiricaldispersion=gd3bj
 -------------------------------------------------------------------
 ------------------------------
 theory_abbreviation b3lyp_d3bj
 ------------------------------
 Symbolic Z-matrix:
 Charge =  0 Multiplicity = 6

 SCF Done:  E(UB3LYP) =  -3034.39896683     A.U. after    1 cycles
 Normal termination of Gaussian 16 at Tue Feb 11 14:11:46 2020.

 ----------------------------------------
 #t pop=none jul-cc-pvdz guess=read ub97d
 ----------------------------------------
 ------------------------
 theory_abbreviation b97d
 ------------------------
 Symbolic Z-matrix:
 Charge =  0 Multiplicity = 6

 SCF Done:  E(UB97D) =  -3034.58055157     A.U. after   16 cycles

 ----------------------------------------------------------------
 #t pop=none jul-cc-pvdz guess=read ub97d empiricaldispersion=gd3
 ----------------------------------------------------------------
 -------------------------
 theory_abbreviation b97d3
 -------------------------
 Symbolic Z-matrix:
 Charge =  0 Multiplicity = 6

 SCF Done:  E(UB97D) =  -3034.58146483     A.U. after    1 cycles
 SCF Done:  E(UBHandHLYP) =  -3033.97236098     A.U. after   16 cycles
 SCF Done:  E(UBHandH) =  -3026.31793260     A.U. after   14 cycles
 SCF Done:  E(ULC-wPBE) =  -3033.46265089     A.U. after   17 cycles
 SCF Done:  E(UB-P86) =  -3034.63698127     A.U. after   16 cycles
 SCF Done:  E(UmPW1LYP) =  -3034.04851396     A.U. after   14 cycles
 SCF Done:  E(UmPW1PBE) =  -3033.89187956     A.U. after   14 cycles
 SCF Done:  E(UmPW3PBE) =  -3033.66415726     A.U. after   14 cycles
 SCF Done:  E(UM11) =  -3033.81219056     A.U. after   16 cycles
 SCF Done:  E(UN12SX) =  -3033.25774087     A.U. after   16 cycles
 SCF Done:  E(UMN12SX) =  -3033.65229205     A.U. after   16 cycles
 SCF Done:  E(UB1B95) =  -3034.38319384     A.U. after   15 cycles
 Normal termination of Gaussian 16 at Tue Feb 11 23:04:03 2020.
 SCF Done:  E(UB3PW91) =  -3033.97955792     A.U. after   14 cycles
 Normal termination of Gaussian 16 at Tue Feb 11 23:19:11 2020.
 SCF Done:  E(UM06L) =  -3034.19349334     A.U. after   18 cycles
 Normal termination of Gaussian 16 at Tue Feb 11 23:39:40 2020.
 Gaussian 16:  ES64L-G16RevA.03 25-Dec-2016

                         Standard orientation:
 ---------------------------------------------------------------------
 Center     Atomic      Atomic             Coordinates (Angstroms)
 Number     Number       Type             X           Y           Z
 ---------------------------------------------------------------------
      1          8           0       -0.424219   -0.168419   -0.508498
      2          6           0       -1.430242   -1.205832   -0.349994
      3          6           0       -2.792490   -0.115929   -0.212562
      4          6           0       -1.928671    1.129147   -0.278320
      5          6           0       -1.843483    1.874779   -1.561125
      6         26           0        1.373788    0.040909    0.038272
      7         17           0        1.857239    2.004348   -0.850615
      8          6           0       -1.557990    1.859635    0.961730
      9         17           0        2.433546   -1.713040   -0.738109
     10         17           0        1.372903    0.148236    2.246135
     11          1           0       -3.374712   -0.210223   -1.132777
     12          1           0       -2.424656    2.479920    1.239887
     13          1           0       -1.338722    1.192895    1.795808
     14          1           0       -0.705733    2.521052    0.791301
     15          1           0       -2.655228    2.620061   -1.558033
     16          1           0       -0.891612    2.405731   -1.643222
     17          1           0       -1.984385    1.220522   -2.423012
     18          6           0       -3.680080   -0.293401    1.007856
     19          1           0       -4.456141    0.480276    1.049528
     20          1           0       -4.186306   -1.262171    0.956674
     21          1           0       -3.119145   -0.260054    1.944755
     22          6           0       -1.195201   -2.032877    0.894194
     23          1           0       -2.011176   -2.746951    1.044893
     24          1           0       -0.265059   -2.600826    0.773903
     25          1           0       -1.089438   -1.412228    1.785928
     26          6           0       -1.501859   -2.031063   -1.616358
     27          1           0       -0.547290   -2.550118   -1.759892
     28          1           0       -2.301340   -2.777310   -1.551846
     29          1           0       -1.676386   -1.395868   -2.489505
 ---------------------------------------------------------------------

 SCF Done:  E(UB97D3) =  -3034.61668621     A.U. after   16 cycles
 Normal termination of Gaussian 16 at Tue Feb 11 23:52:50 2020.
