 Gaussian 16, Revision A.03,

 --------------------------------
 #t pop=none jul-cc-pvdz upbe1pbe
 --------------------------------
 ------------------------
 theory_abbreviation pbe0
 ------------------------
 Symbolic Z-matrix:
 Charge =  0 Multiplicity = 6

 SCF Done:  E(UPBE1PBE) =  -3033.13402198     A.U. after   19 cycles
 Normal termination of Gaussian 16 at Tue Feb 11 13:58:12 2020.

 ---------------------------------------------------------------------
 #t pop=none jul-cc-pvdz guess=read upbe1pbe empiricaldispersion=gd3bj
 ---------------------------------------------------------------------
 -----------------------------
 theory_abbreviation pbe0_d3bj
 -----------------------------
 Symbolic Z-matrix:
 Charge =  0 Multiplicity = 6

 SCF Done:  E(UPBE1PBE) =  -3033.17077154     A.U. after    1 cycles
 Normal termination of Gaussian 16 at Tue Feb 11 13:59:22 2020.

 -----------------------------------------
 #t pop=none jul-cc-pvdz guess=read ub3lyp
 -----------------------------------------
 -------------------------
 theory_abbreviation b3lyp
 -------------------------
 Symbolic Z-matrix:
 Charge =  0 Multiplicity = 6

 SCF Done:  E(UB3LYP) =  -3034.35183129     A.U. after   13 cycles
 Normal termination of Gaussian 16 at Tue Feb 11 14:13:04 2020.

 -------------------------------------------------------------------
 #t pop=none jul-cc-pvdz guess=read ub3lyp empiricaldispersion=gd3bj
 -------------------------------------------------------------------
 ------------------------------
 theory_abbreviation b3lyp_d3bj
 ------------------------------
 Symbolic Z-matrix:
 Charge =  0 Multiplicity = 6

 SCF Done:  E(UB3LYP) =  -3034.41997651     A.U. after    1 cycles
 Normal termination of Gaussian 16 at Tue Feb 11 14:14:14 2020.

 ----------------------------------------
 #t pop=none jul-cc-pvdz guess=read ub97d
 ----------------------------------------
 ------------------------
 theory_abbreviation b97d
 ------------------------
 Symbolic Z-matrix:
 Charge =  0 Multiplicity = 6

 SCF Done:  E(UB97D) =  -3034.60321323     A.U. after   16 cycles

 ----------------------------------------------------------------
 #t pop=none jul-cc-pvdz guess=read ub97d empiricaldispersion=gd3
 ----------------------------------------------------------------
 -------------------------
 theory_abbreviation b97d3
 -------------------------
 Symbolic Z-matrix:
 Charge =  0 Multiplicity = 6

 SCF Done:  E(UB97D) =  -3034.60474436     A.U. after    1 cycles
 SCF Done:  E(UBHandHLYP) =  -3033.99357793     A.U. after   16 cycles
 SCF Done:  E(UBHandH) =  -3026.33139706     A.U. after   14 cycles
 SCF Done:  E(ULC-wPBE) =  -3033.47524180     A.U. after   19 cycles
 SCF Done:  E(UB-P86) =  -3034.65266488     A.U. after   17 cycles
 SCF Done:  E(UmPW1LYP) =  -3034.07016891     A.U. after   13 cycles
 SCF Done:  E(UmPW1PBE) =  -3033.90844299     A.U. after   13 cycles
 SCF Done:  E(UmPW3PBE) =  -3033.68139960     A.U. after   13 cycles
 SCF Done:  E(UM11) =  -3033.83284274     A.U. after   17 cycles
 SCF Done:  E(UN12SX) =  -3033.27291489     A.U. after   16 cycles
 SCF Done:  E(UMN12SX) =  -3033.67522860     A.U. after   16 cycles
 SCF Done:  E(UB1B95) =  -3034.40461969     A.U. after   14 cycles
 Normal termination of Gaussian 16 at Tue Feb 11 22:37:14 2020.
 SCF Done:  E(UB3PW91) =  -3033.99750034     A.U. after   13 cycles
 Normal termination of Gaussian 16 at Tue Feb 11 22:50:49 2020.
 SCF Done:  E(UM06L) =  -3034.22007363     A.U. after   17 cycles
 Normal termination of Gaussian 16 at Tue Feb 11 23:11:01 2020.
 Gaussian 16:  ES64L-G16RevA.03 25-Dec-2016

                         Standard orientation:
 ---------------------------------------------------------------------
 Center     Atomic      Atomic             Coordinates (Angstroms)
 Number     Number       Type             X           Y           Z
 ---------------------------------------------------------------------
      1          8           0        0.222914    0.346128   -0.854771
      2          6           0        1.012785    1.304076   -0.666438
      3          6           0        3.061163    0.106195    0.513280
      4          6           0        2.607485   -0.957967   -0.181601
      5          6           0        3.046082   -1.220849   -1.595841
      6         26           0       -1.471171   -0.152689    0.016339
      7         17           0       -2.073900   -1.991391   -0.977175
      8          6           0        1.681167   -1.996310    0.377937
      9         17           0       -2.686442    1.613651   -0.425390
     10         17           0       -1.100068   -0.373909    2.169645
     11          1           0        3.786595    0.752049    0.018147
     12          1           0        2.205103   -2.959514    0.443936
     13          1           0        1.292680   -1.753591    1.366398
     14          1           0        0.831826   -2.157596   -0.297496
     15          1           0        3.531117   -2.203588   -1.658951
     16          1           0        2.180504   -1.261517   -2.270445
     17          1           0        3.754251   -0.472766   -1.963041
     18          6           0        2.878434    0.353392    1.987645
     19          1           0        3.687218   -0.130088    2.552369
     20          1           0        2.926682    1.420552    2.225259
     21          1           0        1.932633   -0.035618    2.372966
     22          6           0        0.845606    2.218637    0.506614
     23          1           0        1.732891    2.827360    0.683557
     24          1           0        0.009251    2.886211    0.249918
     25          1           0        0.561187    1.676619    1.408557
     26          6           0        1.818531    1.789284   -1.834118
     27          1           0        1.211670    2.572908   -2.311578
     28          1           0        2.763011    2.240822   -1.527775
     29          1           0        1.979975    0.997928   -2.563693
 ---------------------------------------------------------------------

 SCF Done:  E(UB97D3) =  -3034.63947837     A.U. after   16 cycles
 Normal termination of Gaussian 16 at Tue Feb 11 23:23:43 2020.
