 Gaussian 16, Revision A.03,

 --------------------------------
 #t pop=none jul-cc-pvdz upbe1pbe
 --------------------------------
 ------------------------
 theory_abbreviation pbe0
 ------------------------
 Symbolic Z-matrix:
 Charge =  0 Multiplicity = 6

 SCF Done:  E(UPBE1PBE) =  -3033.12190474     A.U. after   19 cycles
 Normal termination of Gaussian 16 at Tue Feb 11 13:57:58 2020.

 ---------------------------------------------------------------------
 #t pop=none jul-cc-pvdz guess=read upbe1pbe empiricaldispersion=gd3bj
 ---------------------------------------------------------------------
 -----------------------------
 theory_abbreviation pbe0_d3bj
 -----------------------------
 Symbolic Z-matrix:
 Charge =  0 Multiplicity = 6

 SCF Done:  E(UPBE1PBE) =  -3033.15929626     A.U. after    1 cycles
 Normal termination of Gaussian 16 at Tue Feb 11 13:59:08 2020.

 -----------------------------------------
 #t pop=none jul-cc-pvdz guess=read ub3lyp
 -----------------------------------------
 -------------------------
 theory_abbreviation b3lyp
 -------------------------
 Symbolic Z-matrix:
 Charge =  0 Multiplicity = 6

 SCF Done:  E(UB3LYP) =  -3034.33835488     A.U. after   13 cycles
 Normal termination of Gaussian 16 at Tue Feb 11 14:12:51 2020.

 -------------------------------------------------------------------
 #t pop=none jul-cc-pvdz guess=read ub3lyp empiricaldispersion=gd3bj
 -------------------------------------------------------------------
 ------------------------------
 theory_abbreviation b3lyp_d3bj
 ------------------------------
 Symbolic Z-matrix:
 Charge =  0 Multiplicity = 6

 SCF Done:  E(UB3LYP) =  -3034.40786155     A.U. after    1 cycles
 Normal termination of Gaussian 16 at Tue Feb 11 14:14:01 2020.

 ----------------------------------------
 #t pop=none jul-cc-pvdz guess=read ub97d
 ----------------------------------------
 ------------------------
 theory_abbreviation b97d
 ------------------------
 Symbolic Z-matrix:
 Charge =  0 Multiplicity = 6

 SCF Done:  E(UB97D) =  -3034.59026715     A.U. after   15 cycles

 ----------------------------------------------------------------
 #t pop=none jul-cc-pvdz guess=read ub97d empiricaldispersion=gd3
 ----------------------------------------------------------------
 -------------------------
 theory_abbreviation b97d3
 -------------------------
 Symbolic Z-matrix:
 Charge =  0 Multiplicity = 6

 SCF Done:  E(UB97D) =  -3034.59245967     A.U. after    1 cycles
 SCF Done:  E(UBHandHLYP) =  -3033.98030963     A.U. after   15 cycles
 SCF Done:  E(UBHandH) =  -3026.32140215     A.U. after   15 cycles
 SCF Done:  E(ULC-wPBE) =  -3033.46340583     A.U. after   17 cycles
 SCF Done:  E(UB-P86) =  -3034.64175271     A.U. after   17 cycles
 SCF Done:  E(UmPW1LYP) =  -3034.05660699     A.U. after   14 cycles
 SCF Done:  E(UmPW1PBE) =  -3033.89639946     A.U. after   14 cycles
 SCF Done:  E(UmPW3PBE) =  -3033.66920781     A.U. after   13 cycles
 SCF Done:  E(UM11) =  -3033.82056726     A.U. after   17 cycles
 SCF Done:  E(UN12SX) =  -3033.26064139     A.U. after   17 cycles
 SCF Done:  E(UMN12SX) =  -3033.66280228     A.U. after   16 cycles
 SCF Done:  E(UB1B95) =  -3034.39269514     A.U. after   14 cycles
 Normal termination of Gaussian 16 at Tue Feb 11 22:31:48 2020.
 SCF Done:  E(UB3PW91) =  -3033.98509585     A.U. after   15 cycles
 Normal termination of Gaussian 16 at Tue Feb 11 22:47:23 2020.
 SCF Done:  E(UM06L) =  -3034.20776153     A.U. after   17 cycles
 Normal termination of Gaussian 16 at Tue Feb 11 23:07:24 2020.
 Gaussian 16:  ES64L-G16RevA.03 25-Dec-2016

                         Standard orientation:
 ---------------------------------------------------------------------
 Center     Atomic      Atomic             Coordinates (Angstroms)
 Number     Number       Type             X           Y           Z
 ---------------------------------------------------------------------
      1          8           0       -0.310496   -0.190433   -0.679486
      2          6           0       -1.110549   -1.160615   -0.584133
      3          6           0       -3.235068    0.051999    0.135922
      4          6           0       -2.381145    1.037052   -0.223188
      5          6           0       -2.355346    1.576467   -1.624717
      6         26           0        1.471423    0.095057    0.058622
      7         17           0        2.102319    1.980008   -0.835622
      8          6           0       -1.551077    1.809136    0.762124
      9         17           0        2.486715   -1.713393   -0.658481
     10         17           0        1.342836    0.130465    2.249627
     11          1           0       -3.873702   -0.363556   -0.642695
     12          1           0       -2.132024    2.675613    1.107628
     13          1           0       -1.264917    1.233437    1.643344
     14          1           0       -0.644302    2.203509    0.295372
     15          1           0       -2.639865    2.636724   -1.604736
     16          1           0       -1.343874    1.531498   -2.043098
     17          1           0       -3.052189    1.057131   -2.288665
     18          6           0       -3.566898   -0.380954    1.537073
     19          1           0       -4.488011    0.115495    1.872091
     20          1           0       -3.754376   -1.458614    1.597663
     21          1           0       -2.784848   -0.130157    2.258030
     22          6           0       -1.071990   -2.052146    0.616988
     23          1           0       -1.969989   -2.662883    0.711116
     24          1           0       -0.212444   -2.722575    0.463543
     25          1           0       -0.882263   -1.489350    1.531420
     26          6           0       -1.733147   -1.683842   -1.843295
     27          1           0       -0.995652   -2.383325   -2.265294
     28          1           0       -2.656186   -2.234268   -1.656232
     29          1           0       -1.888867   -0.889627   -2.572331
 ---------------------------------------------------------------------

 SCF Done:  E(UB97D3) =  -3034.62768779     A.U. after   17 cycles
 Normal termination of Gaussian 16 at Tue Feb 11 23:20:57 2020.
