 Gaussian 16, Revision A.03,

 --------------------------------
 #t pop=none jul-cc-pvdz upbe1pbe
 --------------------------------
 ------------------------
 theory_abbreviation pbe0
 ------------------------
 Symbolic Z-matrix:
 Charge =  0 Multiplicity = 6

 SCF Done:  E(UPBE1PBE) =  -3033.13848877     A.U. after   20 cycles
 Normal termination of Gaussian 16 at Wed Feb 12 14:10:30 2020.

 ---------------------------------------------------------------------
 #t pop=none jul-cc-pvdz guess=read upbe1pbe empiricaldispersion=gd3bj
 ---------------------------------------------------------------------
 -----------------------------
 theory_abbreviation pbe0_d3bj
 -----------------------------
 Symbolic Z-matrix:
 Charge =  0 Multiplicity = 6

 SCF Done:  E(UPBE1PBE) =  -3033.17465285     A.U. after    1 cycles
 Normal termination of Gaussian 16 at Wed Feb 12 14:11:34 2020.

 -----------------------------------------
 #t pop=none jul-cc-pvdz guess=read ub3lyp
 -----------------------------------------
 -------------------------
 theory_abbreviation b3lyp
 -------------------------
 Symbolic Z-matrix:
 Charge =  0 Multiplicity = 6

 SCF Done:  E(UB3LYP) =  -3034.35712965     A.U. after   13 cycles
 Normal termination of Gaussian 16 at Wed Feb 12 14:23:59 2020.

 -------------------------------------------------------------------
 #t pop=none jul-cc-pvdz guess=read ub3lyp empiricaldispersion=gd3bj
 -------------------------------------------------------------------
 ------------------------------
 theory_abbreviation b3lyp_d3bj
 ------------------------------
 Symbolic Z-matrix:
 Charge =  0 Multiplicity = 6

 SCF Done:  E(UB3LYP) =  -3034.42401593     A.U. after    1 cycles
 Normal termination of Gaussian 16 at Wed Feb 12 14:25:02 2020.

 ----------------------------------------
 #t pop=none jul-cc-pvdz guess=read ub97d
 ----------------------------------------
 ------------------------
 theory_abbreviation b97d
 ------------------------
 Symbolic Z-matrix:
 Charge =  0 Multiplicity = 6

 SCF Done:  E(UB97D) =  -3034.60683989     A.U. after   16 cycles

 ----------------------------------------------------------------
 #t pop=none jul-cc-pvdz guess=read ub97d empiricaldispersion=gd3
 ----------------------------------------------------------------
 -------------------------
 theory_abbreviation b97d3
 -------------------------
 Symbolic Z-matrix:
 Charge =  0 Multiplicity = 6

 SCF Done:  E(UB97D) =  -3034.60858727     A.U. after    1 cycles
 SCF Done:  E(UBHandHLYP) =  -3033.99911823     A.U. after   18 cycles
 SCF Done:  E(UBHandH) =  -3026.33433332     A.U. after   14 cycles
 SCF Done:  E(ULC-wPBE) =  -3033.47987006     A.U. after   17 cycles
 SCF Done:  E(UB-P86) =  -3034.65576184     A.U. after   17 cycles
 SCF Done:  E(UmPW1LYP) =  -3034.07551183     A.U. after   13 cycles
 SCF Done:  E(UmPW1PBE) =  -3033.91295995     A.U. after   14 cycles
 SCF Done:  E(UmPW3PBE) =  -3033.68593065     A.U. after   13 cycles
 SCF Done:  E(UM11) =  -3033.83738161     A.U. after   17 cycles
 SCF Done:  E(UN12SX) =  -3033.27746276     A.U. after   16 cycles
 SCF Done:  E(UMN12SX) =  -3033.67993756     A.U. after   16 cycles
 SCF Done:  E(UB1B95) =  -3034.40933452     A.U. after   14 cycles
 Normal termination of Gaussian 16 at Wed Feb 12 21:45:54 2020.
 SCF Done:  E(UB3PW91) =  -3034.00222564     A.U. after   13 cycles
 Normal termination of Gaussian 16 at Wed Feb 12 21:58:26 2020.
 SCF Done:  E(UM06L) =  -3034.22426153     A.U. after   17 cycles
 Normal termination of Gaussian 16 at Wed Feb 12 22:16:21 2020.
 Gaussian 16:  ES64L-G16RevA.03 25-Dec-2016

                         Standard orientation:
 ---------------------------------------------------------------------
 Center     Atomic      Atomic             Coordinates (Angstroms)
 Number     Number       Type             X           Y           Z
 ---------------------------------------------------------------------
      1          8           0        0.182279    0.422141   -0.876322
      2          6           0        0.934774    1.397833   -0.663251
      3          6           0        3.142446    0.058440    0.542865
      4          6           0        2.657950   -0.938958   -0.221759
      5          6           0        3.091462   -1.109454   -1.653683
      6         26           0       -1.483852   -0.170914    0.020329
      7         17           0       -2.069368   -1.969039   -1.048581
      8          6           0        1.716366   -2.002615    0.265366
      9         17           0       -2.740756    1.588888   -0.313421
     10         17           0       -1.053911   -0.477415    2.148462
     11          1           0        3.870828    0.728978    0.084428
     12          1           0        2.222116   -2.977696    0.254828
     13          1           0        1.339587   -1.829050    1.272992
     14          1           0        0.858365   -2.099330   -0.411506
     15          1           0        3.585258   -2.081185   -1.785558
     16          1           0        2.223930   -1.112307   -2.326899
     17          1           0        3.790437   -0.331557   -1.975080
     18          6           0        2.931182    0.254846    2.019393
     19          1           0        3.761248   -0.189475    2.585817
     20          1           0        2.910904    1.318067    2.282526
     21          1           0        2.005611   -0.198810    2.382340
     22          6           0        0.793124    2.232319    0.569230
     23          1           0        1.674038    2.850006    0.748265
     24          1           0       -0.070998    2.892174    0.400257
     25          1           0        0.566123    1.620006    1.442813
     26          6           0        1.769602    1.914513   -1.792927
     27          1           0        1.225019    2.772393   -2.214468
     28          1           0        2.738953    2.277646   -1.447396
     29          1           0        1.887659    1.163869   -2.572566
 ---------------------------------------------------------------------

 SCF Done:  E(UB97D3) =  -3034.64310647     A.U. after   16 cycles
 Normal termination of Gaussian 16 at Wed Feb 12 22:28:28 2020.
