 Gaussian 16, Revision A.03,

 --------------------------------
 #t pop=none jul-cc-pvdz upbe1pbe
 --------------------------------
 ------------------------
 theory_abbreviation pbe0
 ------------------------
 Symbolic Z-matrix:
 Charge =  0 Multiplicity = 6

 SCF Done:  E(UPBE1PBE) =  -3033.11612394     A.U. after   21 cycles
 Normal termination of Gaussian 16 at Tue Feb 11 13:57:16 2020.

 ---------------------------------------------------------------------
 #t pop=none jul-cc-pvdz guess=read upbe1pbe empiricaldispersion=gd3bj
 ---------------------------------------------------------------------
 -----------------------------
 theory_abbreviation pbe0_d3bj
 -----------------------------
 Symbolic Z-matrix:
 Charge =  0 Multiplicity = 6

 SCF Done:  E(UPBE1PBE) =  -3033.15308606     A.U. after    1 cycles
 Normal termination of Gaussian 16 at Tue Feb 11 13:58:29 2020.

 -----------------------------------------
 #t pop=none jul-cc-pvdz guess=read ub3lyp
 -----------------------------------------
 -------------------------
 theory_abbreviation b3lyp
 -------------------------
 Symbolic Z-matrix:
 Charge =  0 Multiplicity = 6

 SCF Done:  E(UB3LYP) =  -3034.32891526     A.U. after   13 cycles
 Normal termination of Gaussian 16 at Tue Feb 11 14:12:23 2020.

 -------------------------------------------------------------------
 #t pop=none jul-cc-pvdz guess=read ub3lyp empiricaldispersion=gd3bj
 -------------------------------------------------------------------
 ------------------------------
 theory_abbreviation b3lyp_d3bj
 ------------------------------
 Symbolic Z-matrix:
 Charge =  0 Multiplicity = 6

 SCF Done:  E(UB3LYP) =  -3034.39772406     A.U. after    1 cycles
 Normal termination of Gaussian 16 at Tue Feb 11 14:13:34 2020.

 ----------------------------------------
 #t pop=none jul-cc-pvdz guess=read ub97d
 ----------------------------------------
 ------------------------
 theory_abbreviation b97d
 ------------------------
 Symbolic Z-matrix:
 Charge =  0 Multiplicity = 6

 SCF Done:  E(UB97D) =  -3034.57874519     A.U. after   16 cycles

 ----------------------------------------------------------------
 #t pop=none jul-cc-pvdz guess=read ub97d empiricaldispersion=gd3
 ----------------------------------------------------------------
 -------------------------
 theory_abbreviation b97d3
 -------------------------
 Symbolic Z-matrix:
 Charge =  0 Multiplicity = 6

 SCF Done:  E(UB97D) =  -3034.57972323     A.U. after    1 cycles
 SCF Done:  E(UBHandHLYP) =  -3033.97262427     A.U. after   16 cycles
 SCF Done:  E(UBHandH) =  -3026.31855584     A.U. after   14 cycles
 SCF Done:  E(ULC-wPBE) =  -3033.46164198     A.U. after   17 cycles
 SCF Done:  E(UB-P86) =  -3034.63491467     A.U. after   17 cycles
 SCF Done:  E(UmPW1LYP) =  -3034.04732846     A.U. after   14 cycles
 SCF Done:  E(UmPW1PBE) =  -3033.89059973     A.U. after   14 cycles
 SCF Done:  E(UmPW3PBE) =  -3033.66270405     A.U. after   14 cycles
 SCF Done:  E(UM11) =  -3033.81117566     A.U. after   16 cycles
 SCF Done:  E(UN12SX) =  -3033.25620573     A.U. after   16 cycles
 SCF Done:  E(UMN12SX) =  -3033.65204426     A.U. after   16 cycles
 SCF Done:  E(UB1B95) =  -3034.38208264     A.U. after   15 cycles
 Normal termination of Gaussian 16 at Tue Feb 11 22:42:34 2020.
 SCF Done:  E(UB3PW91) =  -3033.97810473     A.U. after   14 cycles
 Normal termination of Gaussian 16 at Tue Feb 11 22:58:23 2020.
 SCF Done:  E(UM06L) =  -3034.19346533     A.U. after   17 cycles
 Normal termination of Gaussian 16 at Tue Feb 11 23:17:14 2020.
 Gaussian 16:  ES64L-G16RevA.03 25-Dec-2016

                         Standard orientation:
 ---------------------------------------------------------------------
 Center     Atomic      Atomic             Coordinates (Angstroms)
 Number     Number       Type             X           Y           Z
 ---------------------------------------------------------------------
      1          8           0       -0.372841   -0.241309   -0.578829
      2          6           0       -1.449940   -1.183222   -0.352556
      3          6           0       -2.732303   -0.148341   -0.268465
      4          6           0       -1.970491    1.158652   -0.247049
      5          6           0       -1.846607    1.958906   -1.484075
      6         26           0        1.379804    0.026539    0.017683
      7         17           0        1.802918    2.031497   -0.836629
      8          6           0       -1.595550    1.797988    1.032467
      9         17           0        2.568435   -1.663090   -0.715615
     10         17           0        1.340258    0.151650    2.232259
     11          1           0       -3.266966   -0.217278   -1.220528
     12          1           0       -2.479259    2.366707    1.367909
     13          1           0       -1.348988    1.077647    1.812890
     14          1           0       -0.768186    2.499158    0.903174
     15          1           0       -2.600731    2.762173   -1.431060
     16          1           0       -0.861220    2.434020   -1.532999
     17          1           0       -2.028941    1.367167   -2.381728
     18          6           0       -3.715483   -0.364298    0.879689
     19          1           0       -4.514938    0.385066    0.859934
     20          1           0       -4.184876   -1.347266    0.777956
     21          1           0       -3.233437   -0.324491    1.859073
     22          6           0       -1.222730   -1.976797    0.923943
     23          1           0       -2.047304   -2.672925    1.107427
     24          1           0       -0.303182   -2.561761    0.812274
     25          1           0       -1.094829   -1.332835    1.795988
     26          6           0       -1.556805   -2.089980   -1.567918
     27          1           0       -0.632863   -2.669651   -1.665518
     28          1           0       -2.399500   -2.784117   -1.470302
     29          1           0       -1.684871   -1.499561   -2.480097
 ---------------------------------------------------------------------

 SCF Done:  E(UB97D3) =  -3034.61516077     A.U. after   15 cycles
 Normal termination of Gaussian 16 at Tue Feb 11 23:29:18 2020.
