 Gaussian 16, Revision A.03,

 --------------------------------
 #t pop=none jul-cc-pvdz upbe1pbe
 --------------------------------
 ------------------------
 theory_abbreviation pbe0
 ------------------------
 Symbolic Z-matrix:
 Charge =  0 Multiplicity = 6

 SCF Done:  E(UPBE1PBE) =  -3033.11067742     A.U. after   21 cycles
 Normal termination of Gaussian 16 at Tue Feb 11 14:49:24 2020.

 ---------------------------------------------------------------------
 #t pop=none jul-cc-pvdz guess=read upbe1pbe empiricaldispersion=gd3bj
 ---------------------------------------------------------------------
 -----------------------------
 theory_abbreviation pbe0_d3bj
 -----------------------------
 Symbolic Z-matrix:
 Charge =  0 Multiplicity = 6

 SCF Done:  E(UPBE1PBE) =  -3033.14660762     A.U. after    1 cycles
 Normal termination of Gaussian 16 at Tue Feb 11 14:51:54 2020.

 -----------------------------------------
 #t pop=none jul-cc-pvdz guess=read ub3lyp
 -----------------------------------------
 -------------------------
 theory_abbreviation b3lyp
 -------------------------
 Symbolic Z-matrix:
 Charge =  0 Multiplicity = 6

 SCF Done:  E(UB3LYP) =  -3034.32303208     A.U. after   15 cycles
 Normal termination of Gaussian 16 at Tue Feb 11 15:10:18 2020.

 -------------------------------------------------------------------
 #t pop=none jul-cc-pvdz guess=read ub3lyp empiricaldispersion=gd3bj
 -------------------------------------------------------------------
 ------------------------------
 theory_abbreviation b3lyp_d3bj
 ------------------------------
 Symbolic Z-matrix:
 Charge =  0 Multiplicity = 6

 SCF Done:  E(UB3LYP) =  -3034.39010001     A.U. after    1 cycles
 Normal termination of Gaussian 16 at Tue Feb 11 15:12:13 2020.

 ----------------------------------------
 #t pop=none jul-cc-pvdz guess=read ub97d
 ----------------------------------------
 ------------------------
 theory_abbreviation b97d
 ------------------------
 Symbolic Z-matrix:
 Charge =  0 Multiplicity = 6

 SCF Done:  E(UB97D) =  -3034.57530960     A.U. after   16 cycles

 ----------------------------------------------------------------
 #t pop=none jul-cc-pvdz guess=read ub97d empiricaldispersion=gd3
 ----------------------------------------------------------------
 -------------------------
 theory_abbreviation b97d3
 -------------------------
 Symbolic Z-matrix:
 Charge =  0 Multiplicity = 6

 SCF Done:  E(UB97D) =  -3034.57537480     A.U. after    1 cycles
 SCF Done:  E(UBHandHLYP) =  -3033.96400145     A.U. after   17 cycles
 SCF Done:  E(UBHandH) =  -3026.31219020     A.U. after   15 cycles
 SCF Done:  E(ULC-wPBE) =  -3033.45010003     A.U. after   17 cycles
 SCF Done:  E(UB-P86) =  -3034.62928771     A.U. after   17 cycles
 SCF Done:  E(UmPW1LYP) =  -3034.04066755     A.U. after   15 cycles
 SCF Done:  E(UmPW1PBE) =  -3033.88518802     A.U. after   15 cycles
 SCF Done:  E(UmPW3PBE) =  -3033.65771072     A.U. after   14 cycles
 SCF Done:  E(UM11) =  -3033.80411842     A.U. after   18 cycles
 SCF Done:  E(UN12SX) =  -3033.25024993     A.U. after   17 cycles
 SCF Done:  E(UMN12SX) =  -3033.64523897     A.U. after   16 cycles
 SCF Done:  E(UB1B95) =  -3034.37671048     A.U. after   16 cycles
 Normal termination of Gaussian 16 at Wed Feb 12 01:09:43 2020.
 SCF Done:  E(UB3PW91) =  -3033.97314321     A.U. after   15 cycles
 Normal termination of Gaussian 16 at Wed Feb 12 01:29:39 2020.
 SCF Done:  E(UM06L) =  -3034.18906546     A.U. after   17 cycles
 Normal termination of Gaussian 16 at Wed Feb 12 01:50:55 2020.
 Gaussian 16:  ES64L-G16RevA.03 25-Dec-2016

                         Standard orientation:
 ---------------------------------------------------------------------
 Center     Atomic      Atomic             Coordinates (Angstroms)
 Number     Number       Type             X           Y           Z
 ---------------------------------------------------------------------
      1          8           0       -0.299434   -0.098380   -0.412488
      2          6           0       -1.249835   -1.035686   -0.199163
      3          6           0       -2.493742   -0.371395    0.750266
      4          6           0       -3.071706    0.671926   -0.050347
      5          6           0       -4.279839    0.441542   -0.876853
      6         26           0        1.523162    0.170404   -0.094236
      7         17           0        1.843294    2.197846   -0.897135
      8          6           0       -2.335939    1.923988   -0.186978
      9         17           0        2.550088   -1.466649   -1.150804
     10         17           0        1.849473    0.088149    2.095908
     11          1           0       -3.191229   -1.205093    0.865719
     12          1           0       -2.795121    2.656053   -0.851987
     13          1           0       -2.067073    2.372715    0.774900
     14          1           0       -1.342052    1.581270   -0.585802
     15          1           0       -5.094584    1.040510   -0.438692
     16          1           0       -4.143552    0.822773   -1.896100
     17          1           0       -4.594566   -0.602814   -0.898205
     18          6           0       -1.897893    0.077019    2.094875
     19          1           0       -2.586838    0.749287    2.615873
     20          1           0       -1.732486   -0.789455    2.736328
     21          1           0       -0.938826    0.580002    1.962395
     22          6           0       -0.734599   -2.219756    0.639831
     23          1           0       -1.537404   -2.917509    0.896396
     24          1           0        0.006179   -2.742641    0.026121
     25          1           0       -0.231936   -1.882133    1.546522
     26          6           0       -1.817246   -1.530804   -1.535846
     27          1           0       -1.023061   -2.077725   -2.052114
     28          1           0       -2.671541   -2.203287   -1.402393
     29          1           0       -2.106382   -0.695305   -2.179136
 ---------------------------------------------------------------------

 SCF Done:  E(UB97D3) =  -3034.61004271     A.U. after   16 cycles
 Normal termination of Gaussian 16 at Wed Feb 12 02:10:00 2020.
