 Gaussian 16, Revision A.03,

 --------------------------------
 #t pop=none jul-cc-pvdz upbe1pbe
 --------------------------------
 ------------------------
 theory_abbreviation pbe0
 ------------------------
 Symbolic Z-matrix:
 Charge =  0 Multiplicity = 6

 SCF Done:  E(UPBE1PBE) =  -3033.10523778     A.U. after   21 cycles
 Normal termination of Gaussian 16 at Tue Feb 11 14:46:15 2020.

 ---------------------------------------------------------------------
 #t pop=none jul-cc-pvdz guess=read upbe1pbe empiricaldispersion=gd3bj
 ---------------------------------------------------------------------
 -----------------------------
 theory_abbreviation pbe0_d3bj
 -----------------------------
 Symbolic Z-matrix:
 Charge =  0 Multiplicity = 6

 SCF Done:  E(UPBE1PBE) =  -3033.14242652     A.U. after    1 cycles
 Normal termination of Gaussian 16 at Tue Feb 11 14:47:26 2020.

 -----------------------------------------
 #t pop=none jul-cc-pvdz guess=read ub3lyp
 -----------------------------------------
 -------------------------
 theory_abbreviation b3lyp
 -------------------------
 Symbolic Z-matrix:
 Charge =  0 Multiplicity = 6

 SCF Done:  E(UB3LYP) =  -3034.31721738     A.U. after   14 cycles
 Normal termination of Gaussian 16 at Tue Feb 11 15:02:17 2020.

 -------------------------------------------------------------------
 #t pop=none jul-cc-pvdz guess=read ub3lyp empiricaldispersion=gd3bj
 -------------------------------------------------------------------
 ------------------------------
 theory_abbreviation b3lyp_d3bj
 ------------------------------
 Symbolic Z-matrix:
 Charge =  0 Multiplicity = 6

 SCF Done:  E(UB3LYP) =  -3034.38655010     A.U. after    1 cycles
 Normal termination of Gaussian 16 at Tue Feb 11 15:03:28 2020.

 ----------------------------------------
 #t pop=none jul-cc-pvdz guess=read ub97d
 ----------------------------------------
 ------------------------
 theory_abbreviation b97d
 ------------------------
 Symbolic Z-matrix:
 Charge =  0 Multiplicity = 6

 SCF Done:  E(UB97D) =  -3034.56874768     A.U. after   16 cycles

 ----------------------------------------------------------------
 #t pop=none jul-cc-pvdz guess=read ub97d empiricaldispersion=gd3
 ----------------------------------------------------------------
 -------------------------
 theory_abbreviation b97d3
 -------------------------
 Symbolic Z-matrix:
 Charge =  0 Multiplicity = 6

 SCF Done:  E(UB97D) =  -3034.56898977     A.U. after    3 cycles
 SCF Done:  E(UBHandHLYP) =  -3033.96180506     A.U. after   17 cycles
 SCF Done:  E(UBHandH) =  -3026.31033978     A.U. after   13 cycles
 SCF Done:  E(ULC-wPBE) =  -3033.44802239     A.U. after   18 cycles
 SCF Done:  E(UB-P86) =  -3034.62226803     A.U. after   16 cycles
 SCF Done:  E(UmPW1LYP) =  -3034.03583144     A.U. after   13 cycles
 SCF Done:  E(UmPW1PBE) =  -3033.87953376     A.U. after   13 cycles
 SCF Done:  E(UmPW3PBE) =  -3033.65148647     A.U. after   14 cycles
 SCF Done:  E(UM11) =  -3033.80367402     A.U. after   17 cycles
 SCF Done:  E(UN12SX) =  -3033.24542961     A.U. after   16 cycles
 SCF Done:  E(UMN12SX) =  -3033.64362918     A.U. after   16 cycles
 SCF Done:  E(UB1B95) =  -3034.37267577     A.U. after   16 cycles
 Normal termination of Gaussian 16 at Tue Feb 11 23:24:52 2020.
 SCF Done:  E(UB3PW91) =  -3033.96673135     A.U. after   14 cycles
 Normal termination of Gaussian 16 at Tue Feb 11 23:39:07 2020.
 SCF Done:  E(UM06L) =  -3034.18466513     A.U. after   18 cycles
 Normal termination of Gaussian 16 at Tue Feb 11 23:58:53 2020.
 Gaussian 16:  ES64L-G16RevA.03 25-Dec-2016

                         Standard orientation:
 ---------------------------------------------------------------------
 Center     Atomic      Atomic             Coordinates (Angstroms)
 Number     Number       Type             X           Y           Z
 ---------------------------------------------------------------------
      1          8           0       -0.323073   -0.202623   -0.700257
      2          6           0       -1.301968   -1.124500   -0.528812
      3          6           0       -2.682169   -0.323821    0.304231
      4          6           0       -2.379383    0.998126   -0.123819
      5          6           0       -2.786447    1.505048   -1.453669
      6         26           0        1.378306    0.103817   -0.024338
      7         17           0        1.827901    2.142807   -0.753711
      8          6           0       -1.598250    1.927012    0.713899
      9         17           0        2.703929   -1.503010   -0.727043
     10         17           0        1.156486    0.082218    2.205742
     11          1           0       -3.539449   -0.749163   -0.219013
     12          1           0       -2.339635    2.526709    1.271651
     13          1           0       -0.967590    1.425709    1.448136
     14          1           0       -0.999119    2.614635    0.110796
     15          1           0       -3.116865    2.547269   -1.371256
     16          1           0       -1.875734    1.524749   -2.071811
     17          1           0       -3.553254    0.903766   -1.942287
     18          6           0       -2.709891   -0.598424    1.804992
     19          1           0       -3.485387    0.010164    2.283850
     20          1           0       -2.952615   -1.646551    1.990047
     21          1           0       -1.755919   -0.382388    2.290042
     22          6           0       -0.900598   -2.302644    0.350403
     23          1           0       -1.717557   -3.016707    0.485746
     24          1           0       -0.080528   -2.806500   -0.175735
     25          1           0       -0.519365   -1.982417    1.319897
     26          6           0       -1.842686   -1.602073   -1.875808
     27          1           0       -1.021728   -2.125708   -2.377158
     28          1           0       -2.681944   -2.294362   -1.759611
     29          1           0       -2.137712   -0.774069   -2.521745
 ---------------------------------------------------------------------

 SCF Done:  E(UB97D3) =  -3034.60353777     A.U. after   16 cycles
 Normal termination of Gaussian 16 at Wed Feb 12 00:12:12 2020.
