 Gaussian 16, Revision A.03,

 --------------------------------
 #t pop=none jul-cc-pvdz upbe1pbe
 --------------------------------
 ------------------------
 theory_abbreviation pbe0
 ------------------------
 Symbolic Z-matrix:
 Charge =  0 Multiplicity = 6

 SCF Done:  E(UPBE1PBE) =  -3033.09920010     A.U. after   21 cycles
 Normal termination of Gaussian 16 at Tue Feb 11 13:59:30 2020.

 ---------------------------------------------------------------------
 #t pop=none jul-cc-pvdz guess=read upbe1pbe empiricaldispersion=gd3bj
 ---------------------------------------------------------------------
 -----------------------------
 theory_abbreviation pbe0_d3bj
 -----------------------------
 Symbolic Z-matrix:
 Charge =  0 Multiplicity = 6

 SCF Done:  E(UPBE1PBE) =  -3033.13643184     A.U. after    1 cycles
 Normal termination of Gaussian 16 at Tue Feb 11 14:00:41 2020.

 -----------------------------------------
 #t pop=none jul-cc-pvdz guess=read ub3lyp
 -----------------------------------------
 -------------------------
 theory_abbreviation b3lyp
 -------------------------
 Symbolic Z-matrix:
 Charge =  0 Multiplicity = 6

 SCF Done:  E(UB3LYP) =  -3034.31200341     A.U. after   14 cycles
 Normal termination of Gaussian 16 at Tue Feb 11 14:15:37 2020.

 -------------------------------------------------------------------
 #t pop=none jul-cc-pvdz guess=read ub3lyp empiricaldispersion=gd3bj
 -------------------------------------------------------------------
 ------------------------------
 theory_abbreviation b3lyp_d3bj
 ------------------------------
 Symbolic Z-matrix:
 Charge =  0 Multiplicity = 6

 SCF Done:  E(UB3LYP) =  -3034.38133442     A.U. after    1 cycles
 Normal termination of Gaussian 16 at Tue Feb 11 14:16:48 2020.

 ----------------------------------------
 #t pop=none jul-cc-pvdz guess=read ub97d
 ----------------------------------------
 ------------------------
 theory_abbreviation b97d
 ------------------------
 Symbolic Z-matrix:
 Charge =  0 Multiplicity = 6

 SCF Done:  E(UB97D) =  -3034.56365100     A.U. after   16 cycles

 ----------------------------------------------------------------
 #t pop=none jul-cc-pvdz guess=read ub97d empiricaldispersion=gd3
 ----------------------------------------------------------------
 -------------------------
 theory_abbreviation b97d3
 -------------------------
 Symbolic Z-matrix:
 Charge =  0 Multiplicity = 6

 SCF Done:  E(UB97D) =  -3034.56439853     A.U. after    1 cycles
 SCF Done:  E(UBHandHLYP) =  -3033.95529398     A.U. after   17 cycles
 SCF Done:  E(UBHandH) =  -3026.30252529     A.U. after   14 cycles
 SCF Done:  E(ULC-wPBE) =  -3033.44034852     A.U. after   18 cycles
 SCF Done:  E(UB-P86) =  -3034.61764533     A.U. after   16 cycles
 SCF Done:  E(UmPW1LYP) =  -3034.03040696     A.U. after   15 cycles
 SCF Done:  E(UmPW1PBE) =  -3033.87365548     A.U. after   15 cycles
 SCF Done:  E(UmPW3PBE) =  -3033.64583951     A.U. after   12 cycles
 SCF Done:  E(UM11) =  -3033.79622536     A.U. after   18 cycles
 SCF Done:  E(UN12SX) =  -3033.23940899     A.U. after   15 cycles
 SCF Done:  E(UMN12SX) =  -3033.63752785     A.U. after   15 cycles
 SCF Done:  E(UB1B95) =  -3034.36723948     A.U. after   16 cycles
 Normal termination of Gaussian 16 at Tue Feb 11 22:38:20 2020.
 SCF Done:  E(UB3PW91) =  -3033.96116765     A.U. after   14 cycles
 Normal termination of Gaussian 16 at Tue Feb 11 22:54:27 2020.
 SCF Done:  E(UM06L) =  -3034.17821826     A.U. after   17 cycles
 Normal termination of Gaussian 16 at Tue Feb 11 23:13:26 2020.
 Gaussian 16:  ES64L-G16RevA.03 25-Dec-2016

                         Standard orientation:
 ---------------------------------------------------------------------
 Center     Atomic      Atomic             Coordinates (Angstroms)
 Number     Number       Type             X           Y           Z
 ---------------------------------------------------------------------
      1          8           0       -0.350589   -0.141629   -0.536436
      2          6           0       -1.319801   -1.084991   -0.448710
      3          6           0       -2.951827   -0.069544   -0.120297
      4          6           0       -2.149066    1.088814   -0.233972
      5          6           0       -1.972019    1.774355   -1.539726
      6         26           0        1.411615    0.046750    0.041965
      7         17           0        1.908332    2.039680   -0.783091
      8          6           0       -1.590584    1.775283    0.959413
      9         17           0        2.506203   -1.689616   -0.751957
     10         17           0        1.352840    0.065188    2.261483
     11          1           0       -3.534848   -0.294058   -1.011892
     12          1           0       -2.392450    2.418625    1.356536
     13          1           0       -1.303143    1.084907    1.753531
     14          1           0       -0.735808    2.402949    0.701952
     15          1           0       -2.597739    2.680613   -1.503624
     16          1           0       -0.934815    2.092315   -1.675742
     17          1           0       -2.304086    1.170084   -2.385354
     18          6           0       -3.645572   -0.439378    1.173624
     19          1           0       -4.523243    0.200796    1.327549
     20          1           0       -3.999988   -1.473073    1.137473
     21          1           0       -3.001016   -0.335549    2.048724
     22          6           0       -1.179343   -2.027750    0.721563
     23          1           0       -2.020545   -2.718894    0.806809
     24          1           0       -0.269137   -2.613150    0.530451
     25          1           0       -1.024171   -1.495492    1.660892
     26          6           0       -1.594308   -1.759984   -1.774680
     27          1           0       -0.688921   -2.326841   -2.028541
     28          1           0       -2.443246   -2.447215   -1.721271
     29          1           0       -1.754379   -1.028595   -2.569771
 ---------------------------------------------------------------------

 SCF Done:  E(UB97D3) =  -3034.59934625     A.U. after   14 cycles
 Normal termination of Gaussian 16 at Tue Feb 11 23:24:49 2020.
