 Gaussian 16, Revision A.03,

 --------------------------------
 #t pop=none jul-cc-pvdz upbe1pbe
 --------------------------------
 ------------------------
 theory_abbreviation pbe0
 ------------------------
 Symbolic Z-matrix:
 Charge =  0 Multiplicity = 6

 SCF Done:  E(UPBE1PBE) =  -3033.11037961     A.U. after   21 cycles
 Normal termination of Gaussian 16 at Tue Feb 11 13:57:04 2020.

 ---------------------------------------------------------------------
 #t pop=none jul-cc-pvdz guess=read upbe1pbe empiricaldispersion=gd3bj
 ---------------------------------------------------------------------
 -----------------------------
 theory_abbreviation pbe0_d3bj
 -----------------------------
 Symbolic Z-matrix:
 Charge =  0 Multiplicity = 6

 SCF Done:  E(UPBE1PBE) =  -3033.14673682     A.U. after    1 cycles
 Normal termination of Gaussian 16 at Tue Feb 11 13:58:13 2020.

 -----------------------------------------
 #t pop=none jul-cc-pvdz guess=read ub3lyp
 -----------------------------------------
 -------------------------
 theory_abbreviation b3lyp
 -------------------------
 Symbolic Z-matrix:
 Charge =  0 Multiplicity = 6

 SCF Done:  E(UB3LYP) =  -3034.32145155     A.U. after   15 cycles
 Normal termination of Gaussian 16 at Tue Feb 11 14:13:35 2020.

 -------------------------------------------------------------------
 #t pop=none jul-cc-pvdz guess=read ub3lyp empiricaldispersion=gd3bj
 -------------------------------------------------------------------
 ------------------------------
 theory_abbreviation b3lyp_d3bj
 ------------------------------
 Symbolic Z-matrix:
 Charge =  0 Multiplicity = 6

 SCF Done:  E(UB3LYP) =  -3034.38933546     A.U. after    1 cycles
 Normal termination of Gaussian 16 at Tue Feb 11 14:14:44 2020.

 ----------------------------------------
 #t pop=none jul-cc-pvdz guess=read ub97d
 ----------------------------------------
 ------------------------
 theory_abbreviation b97d
 ------------------------
 Symbolic Z-matrix:
 Charge =  0 Multiplicity = 6

 SCF Done:  E(UB97D) =  -3034.57325366     A.U. after   16 cycles

 ----------------------------------------------------------------
 #t pop=none jul-cc-pvdz guess=read ub97d empiricaldispersion=gd3
 ----------------------------------------------------------------
 -------------------------
 theory_abbreviation b97d3
 -------------------------
 Symbolic Z-matrix:
 Charge =  0 Multiplicity = 6

 SCF Done:  E(UB97D) =  -3034.57353850     A.U. after    1 cycles
 SCF Done:  E(UBHandHLYP) =  -3033.96372651     A.U. after   17 cycles
 SCF Done:  E(UBHandH) =  -3026.31446405     A.U. after   13 cycles
 SCF Done:  E(ULC-wPBE) =  -3033.45164499     A.U. after   17 cycles
 SCF Done:  E(UB-P86) =  -3034.62818233     A.U. after   17 cycles
 SCF Done:  E(UmPW1LYP) =  -3034.03926759     A.U. after   15 cycles
 SCF Done:  E(UmPW1PBE) =  -3033.88479283     A.U. after   15 cycles
 SCF Done:  E(UmPW3PBE) =  -3033.65703629     A.U. after   14 cycles
 SCF Done:  E(UM11) =  -3033.80418794     A.U. after   18 cycles
 SCF Done:  E(UN12SX) =  -3033.24978927     A.U. after   17 cycles
 SCF Done:  E(UMN12SX) =  -3033.64464056     A.U. after   16 cycles
 SCF Done:  E(UB1B95) =  -3034.37624696     A.U. after   16 cycles
 Normal termination of Gaussian 16 at Tue Feb 11 22:43:20 2020.
 SCF Done:  E(UB3PW91) =  -3033.97228631     A.U. after   15 cycles
 Normal termination of Gaussian 16 at Tue Feb 11 23:00:26 2020.
 SCF Done:  E(UM06L) =  -3034.18781945     A.U. after   17 cycles
 Normal termination of Gaussian 16 at Tue Feb 11 23:19:17 2020.
 Gaussian 16:  ES64L-G16RevA.03 25-Dec-2016

                         Standard orientation:
 ---------------------------------------------------------------------
 Center     Atomic      Atomic             Coordinates (Angstroms)
 Number     Number       Type             X           Y           Z
 ---------------------------------------------------------------------
      1          8           0       -0.334662   -0.076725   -0.401929
      2          6           0       -1.271423   -1.052043   -0.247077
      3          6           0       -2.494052   -0.446963    0.681124
      4          6           0       -2.939790    0.724113   -0.035246
      5          6           0       -4.083699    0.654635   -0.977348
      6         26           0        1.488115    0.172401   -0.081628
      7         17           0        1.761365    2.250040   -0.777590
      8          6           0       -2.155185    1.934466    0.030263
      9         17           0        2.542476   -1.387868   -1.221480
     10         17           0        1.804056   -0.006160    2.106041
     11          1           0       -3.261961   -1.225642    0.657000
     12          1           0       -2.541650    2.778184   -0.541037
     13          1           0       -1.838174    2.219742    1.036669
     14          1           0       -1.187015    1.543431   -0.418257
     15          1           0       -4.918669    1.199314   -0.507127
     16          1           0       -3.866747    1.184431   -1.912171
     17          1           0       -4.414257   -0.364536   -1.181306
     18          6           0       -1.995729   -0.183198    2.112416
     19          1           0       -2.693064    0.468760    2.647827
     20          1           0       -1.932637   -1.123093    2.662788
     21          1           0       -1.004470    0.274346    2.116869
     22          6           0       -0.729468   -2.270410    0.525361
     23          1           0       -1.522487   -2.992915    0.742818
     24          1           0        0.019928   -2.749295   -0.112312
     25          1           0       -0.236660   -1.973939    1.451498
     26          6           0       -1.791212   -1.497424   -1.622928
     27          1           0       -0.968362   -1.994673   -2.143830
     28          1           0       -2.627511   -2.200879   -1.544059
     29          1           0       -2.090859   -0.643129   -2.235501
 ---------------------------------------------------------------------

 SCF Done:  E(UB97D3) =  -3034.60837155     A.U. after   16 cycles
 Normal termination of Gaussian 16 at Tue Feb 11 23:32:12 2020.
