 Gaussian 16, Revision A.03,

 --------------------------------
 #t pop=none jul-cc-pvdz upbe1pbe
 --------------------------------
 ------------------------
 theory_abbreviation pbe0
 ------------------------
 Symbolic Z-matrix:
 Charge =  0 Multiplicity = 6

 SCF Done:  E(UPBE1PBE) =  -3033.14003847     A.U. after   20 cycles
 Normal termination of Gaussian 16 at Wed Feb 12 14:13:00 2020.

 ---------------------------------------------------------------------
 #t pop=none jul-cc-pvdz guess=read upbe1pbe empiricaldispersion=gd3bj
 ---------------------------------------------------------------------
 -----------------------------
 theory_abbreviation pbe0_d3bj
 -----------------------------
 Symbolic Z-matrix:
 Charge =  0 Multiplicity = 6

 SCF Done:  E(UPBE1PBE) =  -3033.17590442     A.U. after    1 cycles
 Normal termination of Gaussian 16 at Wed Feb 12 14:14:05 2020.

 -----------------------------------------
 #t pop=none jul-cc-pvdz guess=read ub3lyp
 -----------------------------------------
 -------------------------
 theory_abbreviation b3lyp
 -------------------------
 Symbolic Z-matrix:
 Charge =  0 Multiplicity = 6

 SCF Done:  E(UB3LYP) =  -3034.35901619     A.U. after   13 cycles
 Normal termination of Gaussian 16 at Wed Feb 12 14:27:00 2020.

 -------------------------------------------------------------------
 #t pop=none jul-cc-pvdz guess=read ub3lyp empiricaldispersion=gd3bj
 -------------------------------------------------------------------
 ------------------------------
 theory_abbreviation b3lyp_d3bj
 ------------------------------
 Symbolic Z-matrix:
 Charge =  0 Multiplicity = 6

 SCF Done:  E(UB3LYP) =  -3034.42527021     A.U. after    1 cycles
 Normal termination of Gaussian 16 at Wed Feb 12 14:28:07 2020.

 ----------------------------------------
 #t pop=none jul-cc-pvdz guess=read ub97d
 ----------------------------------------
 ------------------------
 theory_abbreviation b97d
 ------------------------
 Symbolic Z-matrix:
 Charge =  0 Multiplicity = 6

 SCF Done:  E(UB97D) =  -3034.60784488     A.U. after   17 cycles

 ----------------------------------------------------------------
 #t pop=none jul-cc-pvdz guess=read ub97d empiricaldispersion=gd3
 ----------------------------------------------------------------
 -------------------------
 theory_abbreviation b97d3
 -------------------------
 Symbolic Z-matrix:
 Charge =  0 Multiplicity = 6

 SCF Done:  E(UB97D) =  -3034.60973228     A.U. after    1 cycles
 SCF Done:  E(UBHandHLYP) =  -3034.00104302     A.U. after   18 cycles
 SCF Done:  E(UBHandH) =  -3026.33509492     A.U. after   14 cycles
 SCF Done:  E(ULC-wPBE) =  -3033.48137587     A.U. after   17 cycles
 SCF Done:  E(UB-P86) =  -3034.65665943     A.U. after   16 cycles
 SCF Done:  E(UmPW1LYP) =  -3034.07739766     A.U. after   13 cycles
 SCF Done:  E(UmPW1PBE) =  -3033.91454635     A.U. after   14 cycles
 SCF Done:  E(UmPW3PBE) =  -3033.68752288     A.U. after   13 cycles
 SCF Done:  E(UM11) =  -3033.83876969     A.U. after   16 cycles
 SCF Done:  E(UN12SX) =  -3033.27903017     A.U. after   16 cycles
 SCF Done:  E(UMN12SX) =  -3033.68143325     A.U. after   16 cycles
 SCF Done:  E(UB1B95) =  -3034.41093347     A.U. after   14 cycles
 Normal termination of Gaussian 16 at Wed Feb 12 21:55:28 2020.
 SCF Done:  E(UB3PW91) =  -3034.00390497     A.U. after   13 cycles
 Normal termination of Gaussian 16 at Wed Feb 12 22:08:05 2020.
 SCF Done:  E(UM06L) =  -3034.22548446     A.U. after   18 cycles
 Normal termination of Gaussian 16 at Wed Feb 12 22:27:07 2020.
 Gaussian 16:  ES64L-G16RevA.03 25-Dec-2016

                         Standard orientation:
 ---------------------------------------------------------------------
 Center     Atomic      Atomic             Coordinates (Angstroms)
 Number     Number       Type             X           Y           Z
 ---------------------------------------------------------------------
      1          8           0        0.160160    0.464225   -0.883421
      2          6           0        0.893672    1.448394   -0.654605
      3          6           0        3.180716    0.033464    0.557790
      4          6           0        2.683103   -0.925156   -0.245588
      5          6           0        3.113904   -1.039859   -1.684733
      6         26           0       -1.488578   -0.181251    0.021434
      7         17           0       -2.062927   -1.956593   -1.088565
      8          6           0        1.735597   -2.003354    0.198680
      9         17           0       -2.771952    1.569526   -0.251024
     10         17           0       -1.024129   -0.534211    2.133575
     11          1           0        3.911447    0.717832    0.123345
     12          1           0        2.233731   -2.980787    0.141874
     13          1           0        1.365730   -1.872777    1.215419
     14          1           0        0.872846   -2.064390   -0.476273
     15          1           0        3.609366   -2.004502   -1.856968
     16          1           0        2.245406   -1.017078   -2.356217
     17          1           0        3.810398   -0.248121   -1.977042
     18          6           0        2.955863    0.193307    2.036077
     19          1           0        3.795522   -0.234825    2.600915
     20          1           0        2.900971    1.250913    2.318588
     21          1           0        2.041746   -0.294254    2.383521
     22          6           0        0.760918    2.241251    0.605647
     23          1           0        1.632491    2.872403    0.784353
     24          1           0       -0.122479    2.885239    0.482324
     25          1           0        0.570938    1.593422    1.462808
     26          6           0        1.738753    1.986962   -1.765031
     27          1           0        1.233209    2.888823   -2.140248
     28          1           0        2.723819    2.289940   -1.404812
     29          1           0        1.824590    1.268559   -2.578695
 ---------------------------------------------------------------------

 SCF Done:  E(UB97D3) =  -3034.64420299     A.U. after   16 cycles
 Normal termination of Gaussian 16 at Wed Feb 12 22:39:21 2020.
