 Gaussian 16, Revision A.03,

 --------------------------------
 #t pop=none jul-cc-pvdz upbe1pbe
 --------------------------------
 ------------------------
 theory_abbreviation pbe0
 ------------------------
 Symbolic Z-matrix:
 Charge =  0 Multiplicity = 6

 SCF Done:  E(UPBE1PBE) =  -3033.11157016     A.U. after   20 cycles
 Normal termination of Gaussian 16 at Tue Feb 11 13:58:47 2020.

 ---------------------------------------------------------------------
 #t pop=none jul-cc-pvdz guess=read upbe1pbe empiricaldispersion=gd3bj
 ---------------------------------------------------------------------
 -----------------------------
 theory_abbreviation pbe0_d3bj
 -----------------------------
 Symbolic Z-matrix:
 Charge =  0 Multiplicity = 6

 SCF Done:  E(UPBE1PBE) =  -3033.14941244     A.U. after    1 cycles
 Normal termination of Gaussian 16 at Tue Feb 11 13:59:58 2020.

 -----------------------------------------
 #t pop=none jul-cc-pvdz guess=read ub3lyp
 -----------------------------------------
 -------------------------
 theory_abbreviation b3lyp
 -------------------------
 Symbolic Z-matrix:
 Charge =  0 Multiplicity = 6

 SCF Done:  E(UB3LYP) =  -3034.32599265     A.U. after   13 cycles
 Normal termination of Gaussian 16 at Tue Feb 11 14:13:59 2020.

 -------------------------------------------------------------------
 #t pop=none jul-cc-pvdz guess=read ub3lyp empiricaldispersion=gd3bj
 -------------------------------------------------------------------
 ------------------------------
 theory_abbreviation b3lyp_d3bj
 ------------------------------
 Symbolic Z-matrix:
 Charge =  0 Multiplicity = 6

 SCF Done:  E(UB3LYP) =  -3034.39651386     A.U. after    1 cycles
 Normal termination of Gaussian 16 at Tue Feb 11 14:15:11 2020.

 ----------------------------------------
 #t pop=none jul-cc-pvdz guess=read ub97d
 ----------------------------------------
 ------------------------
 theory_abbreviation b97d
 ------------------------
 Symbolic Z-matrix:
 Charge =  0 Multiplicity = 6

 SCF Done:  E(UB97D) =  -3034.57934230     A.U. after   15 cycles

 ----------------------------------------------------------------
 #t pop=none jul-cc-pvdz guess=read ub97d empiricaldispersion=gd3
 ----------------------------------------------------------------
 -------------------------
 theory_abbreviation b97d3
 -------------------------
 Symbolic Z-matrix:
 Charge =  0 Multiplicity = 6

 SCF Done:  E(UB97D) =  -3034.58073832     A.U. after    1 cycles
 SCF Done:  E(UBHandHLYP) =  -3033.96773666     A.U. after   18 cycles
 SCF Done:  E(UBHandH) =  -3026.31306633     A.U. after   14 cycles
 SCF Done:  E(ULC-wPBE) =  -3033.45197426     A.U. after   19 cycles
 SCF Done:  E(UB-P86) =  -3034.63207120     A.U. after   17 cycles
 SCF Done:  E(UmPW1LYP) =  -3034.04415055     A.U. after   13 cycles
 SCF Done:  E(UmPW1PBE) =  -3033.88602741     A.U. after   13 cycles
 SCF Done:  E(UmPW3PBE) =  -3033.65863685     A.U. after   13 cycles
 SCF Done:  E(UM11) =  -3033.80929394     A.U. after   18 cycles
 SCF Done:  E(UN12SX) =  -3033.25089228     A.U. after   17 cycles
 SCF Done:  E(UMN12SX) =  -3033.65061987     A.U. after   16 cycles
 SCF Done:  E(UB1B95) =  -3034.38102931     A.U. after   16 cycles
 Normal termination of Gaussian 16 at Tue Feb 11 22:54:45 2020.
 SCF Done:  E(UB3PW91) =  -3033.97418555     A.U. after   13 cycles
 Normal termination of Gaussian 16 at Tue Feb 11 23:08:38 2020.
 SCF Done:  E(UM06L) =  -3034.19402062     A.U. after   17 cycles
 Normal termination of Gaussian 16 at Tue Feb 11 23:27:50 2020.
 Gaussian 16:  ES64L-G16RevA.03 25-Dec-2016

                         Standard orientation:
 ---------------------------------------------------------------------
 Center     Atomic      Atomic             Coordinates (Angstroms)
 Number     Number       Type             X           Y           Z
 ---------------------------------------------------------------------
      1          8           0       -0.317354   -0.132435   -0.659363
      2          6           0       -1.218172   -1.050845   -0.575187
      3          6           0       -3.059895   -0.076412    0.130882
      4          6           0       -2.350558    1.049320   -0.180304
      5          6           0       -2.379952    1.651087   -1.548289
      6         26           0        1.445390    0.076034    0.042743
      7         17           0        2.061224    2.024012   -0.749460
      8          6           0       -1.562883    1.818004    0.830940
      9         17           0        2.501735   -1.684895   -0.738306
     10         17           0        1.309609    0.038450    2.246684
     11          1           0       -3.713872   -0.471227   -0.643379
     12          1           0       -2.218011    2.599566    1.243333
     13          1           0       -1.207354    1.211086    1.663673
     14          1           0       -0.707775    2.319199    0.369657
     15          1           0       -2.695271    2.698973   -1.462326
     16          1           0       -1.369291    1.660897   -1.972459
     17          1           0       -3.067571    1.141875   -2.227006
     18          6           0       -3.401871   -0.510880    1.534176
     19          1           0       -4.300397    0.024244    1.868627
     20          1           0       -3.630865   -1.578734    1.582357
     21          1           0       -2.609482   -0.298603    2.255091
     22          6           0       -1.082951   -2.069930    0.525022
     23          1           0       -1.949971   -2.726443    0.602547
     24          1           0       -0.211926   -2.679960    0.243550
     25          1           0       -0.854945   -1.609934    1.486519
     26          6           0       -1.748198   -1.562140   -1.893818
     27          1           0       -0.935893   -2.169640   -2.316444
     28          1           0       -2.630036   -2.194856   -1.777229
     29          1           0       -1.945402   -0.751699   -2.595072
 ---------------------------------------------------------------------

 SCF Done:  E(UB97D3) =  -3034.61646582     A.U. after   15 cycles
 Normal termination of Gaussian 16 at Tue Feb 11 23:40:01 2020.
