 Gaussian 16, Revision A.03,

 --------------------------------
 #t pop=none jul-cc-pvdz upbe1pbe
 --------------------------------
 ------------------------
 theory_abbreviation pbe0
 ------------------------
 Symbolic Z-matrix:
 Charge =  0 Multiplicity = 6

 SCF Done:  E(UPBE1PBE) =  -3033.10917757     A.U. after   21 cycles
 Normal termination of Gaussian 16 at Tue Feb 11 14:46:00 2020.

 ---------------------------------------------------------------------
 #t pop=none jul-cc-pvdz guess=read upbe1pbe empiricaldispersion=gd3bj
 ---------------------------------------------------------------------
 -----------------------------
 theory_abbreviation pbe0_d3bj
 -----------------------------
 Symbolic Z-matrix:
 Charge =  0 Multiplicity = 6

 SCF Done:  E(UPBE1PBE) =  -3033.14615024     A.U. after    1 cycles
 Normal termination of Gaussian 16 at Tue Feb 11 14:47:12 2020.

 -----------------------------------------
 #t pop=none jul-cc-pvdz guess=read ub3lyp
 -----------------------------------------
 -------------------------
 theory_abbreviation b3lyp
 -------------------------
 Symbolic Z-matrix:
 Charge =  0 Multiplicity = 6

 SCF Done:  E(UB3LYP) =  -3034.32213557     A.U. after   13 cycles
 Normal termination of Gaussian 16 at Tue Feb 11 15:01:19 2020.

 -------------------------------------------------------------------
 #t pop=none jul-cc-pvdz guess=read ub3lyp empiricaldispersion=gd3bj
 -------------------------------------------------------------------
 ------------------------------
 theory_abbreviation b3lyp_d3bj
 ------------------------------
 Symbolic Z-matrix:
 Charge =  0 Multiplicity = 6

 SCF Done:  E(UB3LYP) =  -3034.39096392     A.U. after    1 cycles
 Normal termination of Gaussian 16 at Tue Feb 11 15:02:31 2020.

 ----------------------------------------
 #t pop=none jul-cc-pvdz guess=read ub97d
 ----------------------------------------
 ------------------------
 theory_abbreviation b97d
 ------------------------
 Symbolic Z-matrix:
 Charge =  0 Multiplicity = 6

 SCF Done:  E(UB97D) =  -3034.57179927     A.U. after   16 cycles

 ----------------------------------------------------------------
 #t pop=none jul-cc-pvdz guess=read ub97d empiricaldispersion=gd3
 ----------------------------------------------------------------
 -------------------------
 theory_abbreviation b97d3
 -------------------------
 Symbolic Z-matrix:
 Charge =  0 Multiplicity = 6

 SCF Done:  E(UB97D) =  -3034.57294946     A.U. after    1 cycles
 SCF Done:  E(UBHandHLYP) =  -3033.96659318     A.U. after   15 cycles
 SCF Done:  E(UBHandH) =  -3026.31276391     A.U. after   14 cycles
 SCF Done:  E(ULC-wPBE) =  -3033.45402256     A.U. after   17 cycles
 SCF Done:  E(UB-P86) =  -3034.62741720     A.U. after   16 cycles
 SCF Done:  E(UmPW1LYP) =  -3034.04073140     A.U. after   14 cycles
 SCF Done:  E(UmPW1PBE) =  -3033.88362855     A.U. after   14 cycles
 SCF Done:  E(UmPW3PBE) =  -3033.65567514     A.U. after   12 cycles
 SCF Done:  E(UM11) =  -3033.80520163     A.U. after   16 cycles
 SCF Done:  E(UN12SX) =  -3033.24925601     A.U. after   15 cycles
 SCF Done:  E(UMN12SX) =  -3033.64590128     A.U. after   16 cycles
 SCF Done:  E(UB1B95) =  -3034.37491262     A.U. after   14 cycles
 Normal termination of Gaussian 16 at Tue Feb 11 23:08:55 2020.
 SCF Done:  E(UB3PW91) =  -3033.97105658     A.U. after   14 cycles
 Normal termination of Gaussian 16 at Tue Feb 11 23:23:06 2020.
 SCF Done:  E(UM06L) =  -3034.18650802     A.U. after   18 cycles
 Normal termination of Gaussian 16 at Tue Feb 11 23:42:42 2020.
 Gaussian 16:  ES64L-G16RevA.03 25-Dec-2016

                         Standard orientation:
 ---------------------------------------------------------------------
 Center     Atomic      Atomic             Coordinates (Angstroms)
 Number     Number       Type             X           Y           Z
 ---------------------------------------------------------------------
      1          8           0       -0.336163   -0.291906   -0.618367
      2          6           0       -1.424494   -1.194214   -0.418481
      3          6           0       -2.745451   -0.153549   -0.169299
      4          6           0       -2.023692    1.149385   -0.247661
      5          6           0       -1.904268    1.861123   -1.533817
      6         26           0        1.372597    0.027638    0.021003
      7         17           0        1.731756    2.073205   -0.788670
      8          6           0       -1.576220    1.845482    0.972148
      9         17           0        2.694411   -1.573503   -0.686448
     10         17           0        1.250299    0.112336    2.245046
     11          1           0       -3.387154   -0.255599   -1.049031
     12          1           0       -2.469679    2.338877    1.392269
     13          1           0       -1.202983    1.156607    1.733695
     14          1           0       -0.821672    2.604485    0.758012
     15          1           0       -2.568326    2.740569   -1.484015
     16          1           0       -0.881663    2.240990   -1.649380
     17          1           0       -2.189274    1.247474   -2.388565
     18          6           0       -3.555806   -0.400718    1.100126
     19          1           0       -4.367052    0.330070    1.196524
     20          1           0       -4.012532   -1.393126    1.054966
     21          1           0       -2.946048   -0.355639    2.004973
     22          6           0       -1.176325   -2.105393    0.771021
     23          1           0       -2.008930   -2.796859    0.932244
     24          1           0       -0.278181   -2.696668    0.557152
     25          1           0       -0.984666   -1.543736    1.686916
     26          6           0       -1.646878   -1.980438   -1.701372
     27          1           0       -0.752801   -2.579820   -1.904026
     28          1           0       -2.510310   -2.649740   -1.616229
     29          1           0       -1.798073   -1.305927   -2.549428
 ---------------------------------------------------------------------

 SCF Done:  E(UB97D3) =  -3034.60805252     A.U. after   15 cycles
 Normal termination of Gaussian 16 at Tue Feb 11 23:54:41 2020.
