 Gaussian 16, Revision A.03,

 --------------------------------
 #t pop=none jul-cc-pvdz upbe1pbe
 --------------------------------
 ------------------------
 theory_abbreviation pbe0
 ------------------------
 Symbolic Z-matrix:
 Charge =  0 Multiplicity = 6

 SCF Done:  E(UPBE1PBE) =  -3033.11152825     A.U. after   21 cycles
 Normal termination of Gaussian 16 at Tue Feb 11 20:05:27 2020.

 ---------------------------------------------------------------------
 #t pop=none jul-cc-pvdz guess=read upbe1pbe empiricaldispersion=gd3bj
 ---------------------------------------------------------------------
 -----------------------------
 theory_abbreviation pbe0_d3bj
 -----------------------------
 Symbolic Z-matrix:
 Charge =  0 Multiplicity = 6

 SCF Done:  E(UPBE1PBE) =  -3033.14777596     A.U. after    1 cycles
 Normal termination of Gaussian 16 at Tue Feb 11 20:06:33 2020.

 -----------------------------------------
 #t pop=none jul-cc-pvdz guess=read ub3lyp
 -----------------------------------------
 -------------------------
 theory_abbreviation b3lyp
 -------------------------
 Symbolic Z-matrix:
 Charge =  0 Multiplicity = 6

 SCF Done:  E(UB3LYP) =  -3034.32385953     A.U. after   15 cycles
 Normal termination of Gaussian 16 at Tue Feb 11 20:21:21 2020.

 -------------------------------------------------------------------
 #t pop=none jul-cc-pvdz guess=read ub3lyp empiricaldispersion=gd3bj
 -------------------------------------------------------------------
 ------------------------------
 theory_abbreviation b3lyp_d3bj
 ------------------------------
 Symbolic Z-matrix:
 Charge =  0 Multiplicity = 6

 SCF Done:  E(UB3LYP) =  -3034.39148538     A.U. after    1 cycles
 Normal termination of Gaussian 16 at Tue Feb 11 20:22:27 2020.

 ----------------------------------------
 #t pop=none jul-cc-pvdz guess=read ub97d
 ----------------------------------------
 ------------------------
 theory_abbreviation b97d
 ------------------------
 Symbolic Z-matrix:
 Charge =  0 Multiplicity = 6

 SCF Done:  E(UB97D) =  -3034.57582064     A.U. after   16 cycles

 ----------------------------------------------------------------
 #t pop=none jul-cc-pvdz guess=read ub97d empiricaldispersion=gd3
 ----------------------------------------------------------------
 -------------------------
 theory_abbreviation b97d3
 -------------------------
 Symbolic Z-matrix:
 Charge =  0 Multiplicity = 6

 SCF Done:  E(UB97D) =  -3034.57621622     A.U. after    1 cycles
 SCF Done:  E(UBHandHLYP) =  -3033.96510995     A.U. after   17 cycles
 SCF Done:  E(UBHandH) =  -3026.31382811     A.U. after   16 cycles
 SCF Done:  E(ULC-wPBE) =  -3033.45094453     A.U. after   18 cycles
 SCF Done:  E(UB-P86) =  -3034.62947408     A.U. after   17 cycles
 SCF Done:  E(UmPW1LYP) =  -3034.04168105     A.U. after   15 cycles
 SCF Done:  E(UmPW1PBE) =  -3033.88597017     A.U. after   15 cycles
 SCF Done:  E(UmPW3PBE) =  -3033.65842603     A.U. after   15 cycles
 SCF Done:  E(UM11) =  -3033.80653653     A.U. after   19 cycles
 SCF Done:  E(UN12SX) =  -3033.25121978     A.U. after   17 cycles
 SCF Done:  E(UMN12SX) =  -3033.64662590     A.U. after   16 cycles
 SCF Done:  E(UB1B95) =  -3034.37826818     A.U. after   16 cycles
 Normal termination of Gaussian 16 at Wed Feb 12 04:45:42 2020.
 SCF Done:  E(UB3PW91) =  -3033.97378814     A.U. after   15 cycles
 Normal termination of Gaussian 16 at Wed Feb 12 05:00:32 2020.
 SCF Done:  E(UM06L) =  -3034.19021215     A.U. after   16 cycles
 Normal termination of Gaussian 16 at Wed Feb 12 05:17:42 2020.
 Gaussian 16:  ES64L-G16RevA.03 25-Dec-2016

                         Standard orientation:
 ---------------------------------------------------------------------
 Center     Atomic      Atomic             Coordinates (Angstroms)
 Number     Number       Type             X           Y           Z
 ---------------------------------------------------------------------
      1          8           0       -0.344629   -0.109029   -0.440253
      2          6           0       -1.230794   -1.089993   -0.286401
      3          6           0       -2.570713   -0.410761    0.705192
      4          6           0       -2.878341    0.739605   -0.052781
      5          6           0       -3.902197    0.704576   -1.131231
      6         26           0        1.475280    0.173056   -0.079487
      7         17           0        1.760208    2.225216   -0.832078
      8          6           0       -2.117658    1.977395    0.119216
      9         17           0        2.551397   -1.422311   -1.145263
     10         17           0        1.738935    0.057988    2.116789
     11          1           0       -3.322630   -1.196338    0.610491
     12          1           0       -2.522215    2.824743   -0.436534
     13          1           0       -1.934873    2.236724    1.165185
     14          1           0       -1.113865    1.717677   -0.289548
     15          1           0       -4.729605    1.360640   -0.820807
     16          1           0       -3.510458    1.135254   -2.061231
     17          1           0       -4.303523   -0.292177   -1.317487
     18          6           0       -2.058542   -0.207823    2.129864
     19          1           0       -2.731420    0.458600    2.680074
     20          1           0       -2.028346   -1.159083    2.663033
     21          1           0       -1.053692    0.220025    2.147184
     22          6           0       -0.741264   -2.267493    0.564754
     23          1           0       -1.545537   -2.973987    0.789017
     24          1           0        0.020803   -2.781094   -0.032427
     25          1           0       -0.266750   -1.935074    1.487398
     26          6           0       -1.788737   -1.573479   -1.625462
     27          1           0       -0.987561   -2.131694   -2.120632
     28          1           0       -2.649357   -2.239217   -1.506334
     29          1           0       -2.050922   -0.739546   -2.278206
 ---------------------------------------------------------------------

 SCF Done:  E(UB97D3) =  -3034.61056470     A.U. after   16 cycles
 Normal termination of Gaussian 16 at Wed Feb 12 05:30:06 2020.
