 Gaussian 16, Revision A.03,

 --------------------------------
 #t pop=none jul-cc-pvdz upbe1pbe
 --------------------------------
 ------------------------
 theory_abbreviation pbe0
 ------------------------
 Symbolic Z-matrix:
 Charge =  0 Multiplicity = 6

 SCF Done:  E(UPBE1PBE) =  -3033.13895338     A.U. after   20 cycles
 Normal termination of Gaussian 16 at Wed Feb 12 15:26:38 2020.

 ---------------------------------------------------------------------
 #t pop=none jul-cc-pvdz guess=read upbe1pbe empiricaldispersion=gd3bj
 ---------------------------------------------------------------------
 -----------------------------
 theory_abbreviation pbe0_d3bj
 -----------------------------
 Symbolic Z-matrix:
 Charge =  0 Multiplicity = 6

 SCF Done:  E(UPBE1PBE) =  -3033.17501402     A.U. after    1 cycles
 Normal termination of Gaussian 16 at Wed Feb 12 15:27:43 2020.

 -----------------------------------------
 #t pop=none jul-cc-pvdz guess=read ub3lyp
 -----------------------------------------
 -------------------------
 theory_abbreviation b3lyp
 -------------------------
 Symbolic Z-matrix:
 Charge =  0 Multiplicity = 6

 SCF Done:  E(UB3LYP) =  -3034.35772145     A.U. after   13 cycles
 Normal termination of Gaussian 16 at Wed Feb 12 15:40:25 2020.

 -------------------------------------------------------------------
 #t pop=none jul-cc-pvdz guess=read ub3lyp empiricaldispersion=gd3bj
 -------------------------------------------------------------------
 ------------------------------
 theory_abbreviation b3lyp_d3bj
 ------------------------------
 Symbolic Z-matrix:
 Charge =  0 Multiplicity = 6

 SCF Done:  E(UB3LYP) =  -3034.42439294     A.U. after    1 cycles
 Normal termination of Gaussian 16 at Wed Feb 12 15:41:30 2020.

 ----------------------------------------
 #t pop=none jul-cc-pvdz guess=read ub97d
 ----------------------------------------
 ------------------------
 theory_abbreviation b97d
 ------------------------
 Symbolic Z-matrix:
 Charge =  0 Multiplicity = 6

 SCF Done:  E(UB97D) =  -3034.60725796     A.U. after   16 cycles

 ----------------------------------------------------------------
 #t pop=none jul-cc-pvdz guess=read ub97d empiricaldispersion=gd3
 ----------------------------------------------------------------
 -------------------------
 theory_abbreviation b97d3
 -------------------------
 Symbolic Z-matrix:
 Charge =  0 Multiplicity = 6

 SCF Done:  E(UB97D) =  -3034.60891650     A.U. after    1 cycles
 SCF Done:  E(UBHandHLYP) =  -3033.99964830     A.U. after   18 cycles
 SCF Done:  E(UBHandH) =  -3026.33452480     A.U. after   14 cycles
 SCF Done:  E(ULC-wPBE) =  -3033.48015017     A.U. after   17 cycles
 SCF Done:  E(UB-P86) =  -3034.65607140     A.U. after   17 cycles
 SCF Done:  E(UmPW1LYP) =  -3034.07609315     A.U. after   13 cycles
 SCF Done:  E(UmPW1PBE) =  -3033.91343941     A.U. after   14 cycles
 SCF Done:  E(UmPW3PBE) =  -3033.68642490     A.U. after   13 cycles
 SCF Done:  E(UM11) =  -3033.83760735     A.U. after   17 cycles
 SCF Done:  E(UN12SX) =  -3033.27792782     A.U. after   16 cycles
 SCF Done:  E(UMN12SX) =  -3033.68026927     A.U. after   16 cycles
 SCF Done:  E(UB1B95) =  -3034.40970265     A.U. after   14 cycles
 Normal termination of Gaussian 16 at Wed Feb 12 23:03:06 2020.
 SCF Done:  E(UB3PW91) =  -3034.00274460     A.U. after   13 cycles
 Normal termination of Gaussian 16 at Wed Feb 12 23:15:37 2020.
 SCF Done:  E(UM06L) =  -3034.22457405     A.U. after   17 cycles
 Normal termination of Gaussian 16 at Wed Feb 12 23:33:25 2020.
 Gaussian 16:  ES64L-G16RevA.03 25-Dec-2016

                         Standard orientation:
 ---------------------------------------------------------------------
 Center     Atomic      Atomic             Coordinates (Angstroms)
 Number     Number       Type             X           Y           Z
 ---------------------------------------------------------------------
      1          8           0        0.163152    0.432091   -0.889566
      2          6           0        0.925241    1.400272   -0.675455
      3          6           0        3.131464    0.085613    0.560164
      4          6           0        2.688899   -0.930167   -0.205938
      5          6           0        3.154409   -1.098788   -1.628024
      6         26           0       -1.491635   -0.175253    0.016674
      7         17           0       -2.061502   -1.980697   -1.048351
      8          6           0        1.752272   -2.004969    0.266420
      9         17           0       -2.767591    1.572065   -0.306468
     10         17           0       -1.040951   -0.481679    2.140572
     11          1           0        3.855297    0.768125    0.112297
     12          1           0        2.261986   -2.977733    0.247893
     13          1           0        1.369413   -1.842900    1.273710
     14          1           0        0.897135   -2.097519   -0.415293
     15          1           0        3.672917   -2.059542   -1.744631
     16          1           0        2.300959   -1.125236   -2.318719
     17          1           0        3.841367   -0.306628   -1.940290
     18          6           0        2.890899    0.282715    2.032380
     19          1           0        3.713324   -0.155858    2.614220
     20          1           0        2.859474    1.345888    2.293719
     21          1           0        1.961683   -0.176102    2.378864
     22          6           0        0.778103    2.245211    0.549306
     23          1           0        1.659649    2.861244    0.730390
     24          1           0       -0.082623    2.906287    0.368109
     25          1           0        0.541930    1.641009    1.426123
     26          6           0        1.770934    1.901927   -1.803972
     27          1           0        1.227385    2.750217   -2.245848
     28          1           0        2.735335    2.274138   -1.454763
     29          1           0        1.899483    1.138866   -2.569871
 ---------------------------------------------------------------------

 SCF Done:  E(UB97D3) =  -3034.64350995     A.U. after   16 cycles
 Normal termination of Gaussian 16 at Wed Feb 12 23:45:35 2020.
