 Gaussian 16, Revision A.03,

 --------------------------------
 #t pop=none jul-cc-pvdz upbe1pbe
 --------------------------------
 ------------------------
 theory_abbreviation pbe0
 ------------------------
 Symbolic Z-matrix:
 Charge =  0 Multiplicity = 6

 SCF Done:  E(UPBE1PBE) =  -3033.12872228     A.U. after   19 cycles
 Normal termination of Gaussian 16 at Tue Feb 11 13:58:13 2020.

 ---------------------------------------------------------------------
 #t pop=none jul-cc-pvdz guess=read upbe1pbe empiricaldispersion=gd3bj
 ---------------------------------------------------------------------
 -----------------------------
 theory_abbreviation pbe0_d3bj
 -----------------------------
 Symbolic Z-matrix:
 Charge =  0 Multiplicity = 6

 SCF Done:  E(UPBE1PBE) =  -3033.16578153     A.U. after    1 cycles
 Normal termination of Gaussian 16 at Tue Feb 11 13:59:24 2020.

 -----------------------------------------
 #t pop=none jul-cc-pvdz guess=read ub3lyp
 -----------------------------------------
 -------------------------
 theory_abbreviation b3lyp
 -------------------------
 Symbolic Z-matrix:
 Charge =  0 Multiplicity = 6

 SCF Done:  E(UB3LYP) =  -3034.34587831     A.U. after   13 cycles
 Normal termination of Gaussian 16 at Tue Feb 11 14:13:10 2020.

 -------------------------------------------------------------------
 #t pop=none jul-cc-pvdz guess=read ub3lyp empiricaldispersion=gd3bj
 -------------------------------------------------------------------
 ------------------------------
 theory_abbreviation b3lyp_d3bj
 ------------------------------
 Symbolic Z-matrix:
 Charge =  0 Multiplicity = 6

 SCF Done:  E(UB3LYP) =  -3034.41468792     A.U. after    1 cycles
 Normal termination of Gaussian 16 at Tue Feb 11 14:14:20 2020.

 ----------------------------------------
 #t pop=none jul-cc-pvdz guess=read ub97d
 ----------------------------------------
 ------------------------
 theory_abbreviation b97d
 ------------------------
 Symbolic Z-matrix:
 Charge =  0 Multiplicity = 6

 SCF Done:  E(UB97D) =  -3034.59757709     A.U. after   15 cycles

 ----------------------------------------------------------------
 #t pop=none jul-cc-pvdz guess=read ub97d empiricaldispersion=gd3
 ----------------------------------------------------------------
 -------------------------
 theory_abbreviation b97d3
 -------------------------
 Symbolic Z-matrix:
 Charge =  0 Multiplicity = 6

 SCF Done:  E(UB97D) =  -3034.59940819     A.U. after    1 cycles
 SCF Done:  E(UBHandHLYP) =  -3033.98774769     A.U. after   15 cycles
 SCF Done:  E(UBHandH) =  -3026.32718324     A.U. after   14 cycles
 SCF Done:  E(ULC-wPBE) =  -3033.47009704     A.U. after   18 cycles
 SCF Done:  E(UB-P86) =  -3034.64793130     A.U. after   17 cycles
 SCF Done:  E(UmPW1LYP) =  -3034.06417028     A.U. after   13 cycles
 SCF Done:  E(UmPW1PBE) =  -3033.90319162     A.U. after   14 cycles
 SCF Done:  E(UmPW3PBE) =  -3033.67607001     A.U. after   13 cycles
 SCF Done:  E(UM11) =  -3033.82735846     A.U. after   17 cycles
 SCF Done:  E(UN12SX) =  -3033.26752004     A.U. after   16 cycles
 SCF Done:  E(UMN12SX) =  -3033.66963955     A.U. after   16 cycles
 SCF Done:  E(UB1B95) =  -3034.39933360     A.U. after   14 cycles
 Normal termination of Gaussian 16 at Tue Feb 11 22:30:00 2020.
 SCF Done:  E(UB3PW91) =  -3033.99207546     A.U. after   14 cycles
 Normal termination of Gaussian 16 at Tue Feb 11 22:44:41 2020.
 SCF Done:  E(UM06L) =  -3034.21470473     A.U. after   17 cycles
 Normal termination of Gaussian 16 at Tue Feb 11 23:05:12 2020.
 Gaussian 16:  ES64L-G16RevA.03 25-Dec-2016

                         Standard orientation:
 ---------------------------------------------------------------------
 Center     Atomic      Atomic             Coordinates (Angstroms)
 Number     Number       Type             X           Y           Z
 ---------------------------------------------------------------------
      1          8           0        0.272675    0.254333   -0.770611
      2          6           0        1.071901    1.216354   -0.633152
      3          6           0        3.187484    0.008958    0.275970
      4          6           0        2.468448   -1.022741   -0.215948
      5          6           0        2.598353   -1.461132   -1.647190
      6         26           0       -1.470728   -0.115257    0.048067
      7         17           0       -2.107353   -1.980813   -0.876965
      8          6           0        1.582986   -1.898784    0.620629
      9         17           0       -2.571584    1.682393   -0.553020
     10         17           0       -1.230390   -0.223495    2.227555
     11          1           0        3.870695    0.512048   -0.407748
     12          1           0        2.120210   -2.828084    0.856230
     13          1           0        1.274799   -1.444948    1.562552
     14          1           0        0.686017   -2.193867    0.066367
     15          1           0        2.915107   -2.511508   -1.682190
     16          1           0        1.627240   -1.412560   -2.155198
     17          1           0        3.331740   -0.871023   -2.203981
     18          6           0        3.332273    0.391027    1.723889
     19          1           0        4.226795   -0.084584    2.148849
     20          1           0        3.465050    1.470988    1.847165
     21          1           0        2.480362    0.081958    2.334820
     22          6           0        0.981970    2.115676    0.559524
     23          1           0        1.873793    2.730437    0.682390
     24          1           0        0.125115    2.780163    0.370292
     25          1           0        0.763138    1.558654    1.470909
     26          6           0        1.778305    1.722203   -1.855088
     27          1           0        1.092506    2.452533   -2.310302
     28          1           0        2.708939    2.238121   -1.615538
     29          1           0        1.944265    0.926879   -2.579959
 ---------------------------------------------------------------------

 SCF Done:  E(UB97D3) =  -3034.63429827     A.U. after   17 cycles
 Normal termination of Gaussian 16 at Tue Feb 11 23:18:48 2020.
