 Gaussian 16, Revision A.03,

 --------------------------------
 #t pop=none jul-cc-pvdz upbe1pbe
 --------------------------------
 ------------------------
 theory_abbreviation pbe0
 ------------------------
 Symbolic Z-matrix:
 Charge =  0 Multiplicity = 6

 SCF Done:  E(UPBE1PBE) =  -3033.10548063     A.U. after   21 cycles
 Normal termination of Gaussian 16 at Tue Feb 11 14:53:23 2020.

 ---------------------------------------------------------------------
 #t pop=none jul-cc-pvdz guess=read upbe1pbe empiricaldispersion=gd3bj
 ---------------------------------------------------------------------
 -----------------------------
 theory_abbreviation pbe0_d3bj
 -----------------------------
 Symbolic Z-matrix:
 Charge =  0 Multiplicity = 6

 SCF Done:  E(UPBE1PBE) =  -3033.14262296     A.U. after    1 cycles
 Normal termination of Gaussian 16 at Tue Feb 11 14:55:55 2020.

 -----------------------------------------
 #t pop=none jul-cc-pvdz guess=read ub3lyp
 -----------------------------------------
 -------------------------
 theory_abbreviation b3lyp
 -------------------------
 Symbolic Z-matrix:
 Charge =  0 Multiplicity = 6

 SCF Done:  E(UB3LYP) =  -3034.31732624     A.U. after   14 cycles
 Normal termination of Gaussian 16 at Tue Feb 11 15:12:30 2020.

 -------------------------------------------------------------------
 #t pop=none jul-cc-pvdz guess=read ub3lyp empiricaldispersion=gd3bj
 -------------------------------------------------------------------
 ------------------------------
 theory_abbreviation b3lyp_d3bj
 ------------------------------
 Symbolic Z-matrix:
 Charge =  0 Multiplicity = 6

 SCF Done:  E(UB3LYP) =  -3034.38656274     A.U. after    1 cycles
 Normal termination of Gaussian 16 at Tue Feb 11 15:14:47 2020.

 ----------------------------------------
 #t pop=none jul-cc-pvdz guess=read ub97d
 ----------------------------------------
 ------------------------
 theory_abbreviation b97d
 ------------------------
 Symbolic Z-matrix:
 Charge =  0 Multiplicity = 6

 SCF Done:  E(UB97D) =  -3034.56836615     A.U. after   16 cycles

 ----------------------------------------------------------------
 #t pop=none jul-cc-pvdz guess=read ub97d empiricaldispersion=gd3
 ----------------------------------------------------------------
 -------------------------
 theory_abbreviation b97d3
 -------------------------
 Symbolic Z-matrix:
 Charge =  0 Multiplicity = 6

 SCF Done:  E(UB97D) =  -3034.56870211     A.U. after    3 cycles
 SCF Done:  E(UBHandHLYP) =  -3033.96244939     A.U. after   17 cycles
 SCF Done:  E(UBHandH) =  -3026.31095710     A.U. after   13 cycles
 SCF Done:  E(ULC-wPBE) =  -3033.44897929     A.U. after   18 cycles
 SCF Done:  E(UB-P86) =  -3034.62208167     A.U. after   16 cycles
 SCF Done:  E(UmPW1LYP) =  -3034.03602034     A.U. after   13 cycles
 SCF Done:  E(UmPW1PBE) =  -3033.87976559     A.U. after   13 cycles
 SCF Done:  E(UmPW3PBE) =  -3033.65163531     A.U. after   14 cycles
 SCF Done:  E(UM11) =  -3033.80389849     A.U. after   17 cycles
 SCF Done:  E(UN12SX) =  -3033.24567534     A.U. after   15 cycles
 SCF Done:  E(UMN12SX) =  -3033.64386051     A.U. after   16 cycles
 SCF Done:  E(UB1B95) =  -3034.37268605     A.U. after   15 cycles
 Normal termination of Gaussian 16 at Wed Feb 12 01:43:24 2020.
 SCF Done:  E(UB3PW91) =  -3033.96687938     A.U. after   14 cycles
 Normal termination of Gaussian 16 at Wed Feb 12 01:58:16 2020.
 SCF Done:  E(UM06L) =  -3034.18453082     A.U. after   18 cycles
 Normal termination of Gaussian 16 at Wed Feb 12 02:19:15 2020.
 Gaussian 16:  ES64L-G16RevA.03 25-Dec-2016

                         Standard orientation:
 ---------------------------------------------------------------------
 Center     Atomic      Atomic             Coordinates (Angstroms)
 Number     Number       Type             X           Y           Z
 ---------------------------------------------------------------------
      1          8           0       -0.306932   -0.246935   -0.714069
      2          6           0       -1.308690   -1.150441   -0.515696
      3          6           0       -2.630319   -0.355704    0.311461
      4          6           0       -2.394591    0.991423   -0.115579
      5          6           0       -2.839681    1.481771   -1.435855
      6         26           0        1.376473    0.107891   -0.036314
      7         17           0        1.769761    2.160775   -0.769401
      8          6           0       -1.626244    1.936362    0.710763
      9         17           0        2.761026   -1.459999   -0.711555
     10         17           0        1.145097    0.105117    2.196917
     11          1           0       -3.508301   -0.784412   -0.175828
     12          1           0       -2.371621    2.475417    1.323717
     13          1           0       -0.939597    1.445623    1.402225
     14          1           0       -1.093840    2.674290    0.105071
     15          1           0       -3.160623    2.527568   -1.369102
     16          1           0       -1.936903    1.483879   -2.068944
     17          1           0       -3.612216    0.870338   -1.902128
     18          6           0       -2.634782   -0.603346    1.820970
     19          1           0       -3.403157    0.011889    2.302338
     20          1           0       -2.874246   -1.648612    2.024783
     21          1           0       -1.672319   -0.380677    2.285527
     22          6           0       -0.887601   -2.338226    0.346381
     23          1           0       -1.703212   -3.050787    0.499713
     24          1           0       -0.082355   -2.842019   -0.201077
     25          1           0       -0.483229   -2.023373    1.308521
     26          6           0       -1.858048   -1.630444   -1.861588
     27          1           0       -1.043395   -2.154439   -2.371476
     28          1           0       -2.698349   -2.320884   -1.738350
     29          1           0       -2.159746   -0.802039   -2.504762
 ---------------------------------------------------------------------

 SCF Done:  E(UB97D3) =  -3034.60329665     A.U. after   16 cycles
 Normal termination of Gaussian 16 at Wed Feb 12 02:32:27 2020.
