 Gaussian 16, Revision A.03,

 --------------------------------
 #t pop=none jul-cc-pvdz upbe1pbe
 --------------------------------
 ------------------------
 theory_abbreviation pbe0
 ------------------------
 Symbolic Z-matrix:
 Charge =  0 Multiplicity = 6

 SCF Done:  E(UPBE1PBE) =  -3033.12484502     A.U. after   21 cycles
 Normal termination of Gaussian 16 at Tue Feb 11 13:59:29 2020.

 ---------------------------------------------------------------------
 #t pop=none jul-cc-pvdz guess=read upbe1pbe empiricaldispersion=gd3bj
 ---------------------------------------------------------------------
 -----------------------------
 theory_abbreviation pbe0_d3bj
 -----------------------------
 Symbolic Z-matrix:
 Charge =  0 Multiplicity = 6

 SCF Done:  E(UPBE1PBE) =  -3033.16119209     A.U. after    1 cycles
 Normal termination of Gaussian 16 at Tue Feb 11 14:00:39 2020.

 -----------------------------------------
 #t pop=none jul-cc-pvdz guess=read ub3lyp
 -----------------------------------------
 -------------------------
 theory_abbreviation b3lyp
 -------------------------
 Symbolic Z-matrix:
 Charge =  0 Multiplicity = 6

 SCF Done:  E(UB3LYP) =  -3034.34194965     A.U. after   14 cycles
 Normal termination of Gaussian 16 at Tue Feb 11 14:15:10 2020.

 -------------------------------------------------------------------
 #t pop=none jul-cc-pvdz guess=read ub3lyp empiricaldispersion=gd3bj
 -------------------------------------------------------------------
 ------------------------------
 theory_abbreviation b3lyp_d3bj
 ------------------------------
 Symbolic Z-matrix:
 Charge =  0 Multiplicity = 6

 SCF Done:  E(UB3LYP) =  -3034.40958653     A.U. after    1 cycles
 Normal termination of Gaussian 16 at Tue Feb 11 14:16:19 2020.

 ----------------------------------------
 #t pop=none jul-cc-pvdz guess=read ub97d
 ----------------------------------------
 ------------------------
 theory_abbreviation b97d
 ------------------------
 Symbolic Z-matrix:
 Charge =  0 Multiplicity = 6

 SCF Done:  E(UB97D) =  -3034.59397103     A.U. after   15 cycles

 ----------------------------------------------------------------
 #t pop=none jul-cc-pvdz guess=read ub97d empiricaldispersion=gd3
 ----------------------------------------------------------------
 -------------------------
 theory_abbreviation b97d3
 -------------------------
 Symbolic Z-matrix:
 Charge =  0 Multiplicity = 6

 SCF Done:  E(UB97D) =  -3034.59526831     A.U. after    1 cycles
 SCF Done:  E(UBHandHLYP) =  -3033.98164136     A.U. after   18 cycles
 SCF Done:  E(UBHandH) =  -3026.32164412     A.U. after   16 cycles
 SCF Done:  E(ULC-wPBE) =  -3033.46312002     A.U. after   19 cycles
 SCF Done:  E(UB-P86) =  -3034.64433175     A.U. after   16 cycles
 SCF Done:  E(UmPW1LYP) =  -3034.05979734     A.U. after   16 cycles
 SCF Done:  E(UmPW1PBE) =  -3033.89951293     A.U. after   16 cycles
 SCF Done:  E(UmPW3PBE) =  -3033.67260443     A.U. after   13 cycles
 SCF Done:  E(UM11) =  -3033.82065507     A.U. after   16 cycles
 SCF Done:  E(UN12SX) =  -3033.26356674     A.U. after   16 cycles
 SCF Done:  E(UMN12SX) =  -3033.66257354     A.U. after   17 cycles
 SCF Done:  E(UB1B95) =  -3034.39391405     A.U. after   14 cycles
 Normal termination of Gaussian 16 at Tue Feb 11 22:50:03 2020.
 SCF Done:  E(UB3PW91) =  -3033.98861017     A.U. after   15 cycles
 Normal termination of Gaussian 16 at Tue Feb 11 23:06:40 2020.
 SCF Done:  E(UM06L) =  -3034.20736183     A.U. after   17 cycles
 Normal termination of Gaussian 16 at Tue Feb 11 23:25:21 2020.
 Gaussian 16:  ES64L-G16RevA.03 25-Dec-2016

                         Standard orientation:
 ---------------------------------------------------------------------
 Center     Atomic      Atomic             Coordinates (Angstroms)
 Number     Number       Type             X           Y           Z
 ---------------------------------------------------------------------
      1          8           0       -0.282402   -0.262825   -0.567584
      2          6           0       -1.086230   -1.218801   -0.331975
      3          6           0       -2.768283   -0.217288    0.875365
      4          6           0       -3.021757    0.718569   -0.082527
      5          6           0       -4.037932    0.498766   -1.162343
      6         26           0        1.538388    0.186248   -0.085313
      7         17           0        1.863206    2.095986   -1.090166
      8          6           0       -2.259125    2.003223   -0.139022
      9         17           0        2.627115   -1.542100   -0.881875
     10         17           0        1.697946    0.325544    2.101306
     11          1           0       -3.399133   -1.105292    0.877831
     12          1           0       -2.777679    2.760107   -0.733938
     13          1           0       -2.044068    2.411644    0.851864
     14          1           0       -1.287138    1.810045   -0.621161
     15          1           0       -4.852980    1.224461   -1.036104
     16          1           0       -3.615104    0.686227   -2.157811
     17          1           0       -4.472187   -0.503662   -1.138881
     18          6           0       -2.052083    0.108270    2.165714
     19          1           0       -2.614094    0.866928    2.724626
     20          1           0       -1.968832   -0.770355    2.808400
     21          1           0       -1.045470    0.502682    2.005711
     22          6           0       -0.747121   -2.204736    0.757800
     23          1           0       -1.604472   -2.807495    1.062417
     24          1           0        0.006181   -2.873225    0.315971
     25          1           0       -0.286349   -1.723028    1.619132
     26          6           0       -1.853232   -1.759211   -1.510898
     27          1           0       -1.179854   -2.473007   -2.005515
     28          1           0       -2.756923   -2.295684   -1.216225
     29          1           0       -2.086720   -0.973268   -2.227690
 ---------------------------------------------------------------------

 SCF Done:  E(UB97D3) =  -3034.63050761     A.U. after   15 cycles
 Normal termination of Gaussian 16 at Tue Feb 11 23:37:06 2020.
