 Gaussian 16, Revision A.03,

 --------------------------------
 #t pop=none jul-cc-pvdz upbe1pbe
 --------------------------------
 ------------------------
 theory_abbreviation pbe0
 ------------------------
 Symbolic Z-matrix:
 Charge =  0 Multiplicity = 6

 SCF Done:  E(UPBE1PBE) =  -3033.11041865     A.U. after   21 cycles
 Normal termination of Gaussian 16 at Tue Feb 11 14:46:51 2020.

 ---------------------------------------------------------------------
 #t pop=none jul-cc-pvdz guess=read upbe1pbe empiricaldispersion=gd3bj
 ---------------------------------------------------------------------
 -----------------------------
 theory_abbreviation pbe0_d3bj
 -----------------------------
 Symbolic Z-matrix:
 Charge =  0 Multiplicity = 6

 SCF Done:  E(UPBE1PBE) =  -3033.14730798     A.U. after    1 cycles
 Normal termination of Gaussian 16 at Tue Feb 11 14:48:02 2020.

 -----------------------------------------
 #t pop=none jul-cc-pvdz guess=read ub3lyp
 -----------------------------------------
 -------------------------
 theory_abbreviation b3lyp
 -------------------------
 Symbolic Z-matrix:
 Charge =  0 Multiplicity = 6

 SCF Done:  E(UB3LYP) =  -3034.32370500     A.U. after   13 cycles
 Normal termination of Gaussian 16 at Tue Feb 11 15:02:01 2020.

 -------------------------------------------------------------------
 #t pop=none jul-cc-pvdz guess=read ub3lyp empiricaldispersion=gd3bj
 -------------------------------------------------------------------
 ------------------------------
 theory_abbreviation b3lyp_d3bj
 ------------------------------
 Symbolic Z-matrix:
 Charge =  0 Multiplicity = 6

 SCF Done:  E(UB3LYP) =  -3034.39247304     A.U. after    1 cycles
 Normal termination of Gaussian 16 at Tue Feb 11 15:03:12 2020.

 ----------------------------------------
 #t pop=none jul-cc-pvdz guess=read ub97d
 ----------------------------------------
 ------------------------
 theory_abbreviation b97d
 ------------------------
 Symbolic Z-matrix:
 Charge =  0 Multiplicity = 6

 SCF Done:  E(UB97D) =  -3034.57711505     A.U. after   17 cycles

 ----------------------------------------------------------------
 #t pop=none jul-cc-pvdz guess=read ub97d empiricaldispersion=gd3
 ----------------------------------------------------------------
 -------------------------
 theory_abbreviation b97d3
 -------------------------
 Symbolic Z-matrix:
 Charge =  0 Multiplicity = 6

 SCF Done:  E(UB97D) =  -3034.57735308     A.U. after    1 cycles
 SCF Done:  E(UBHandHLYP) =  -3033.96487422     A.U. after   17 cycles
 SCF Done:  E(UBHandH) =  -3026.31225417     A.U. after   16 cycles
 SCF Done:  E(ULC-wPBE) =  -3033.44971259     A.U. after   18 cycles
 SCF Done:  E(UB-P86) =  -3034.62944215     A.U. after   17 cycles
 SCF Done:  E(UmPW1LYP) =  -3034.04173116     A.U. after   16 cycles
 SCF Done:  E(UmPW1PBE) =  -3033.88477170     A.U. after   16 cycles
 SCF Done:  E(UmPW3PBE) =  -3033.65734232     A.U. after   15 cycles
 SCF Done:  E(UM11) =  -3033.80794488     A.U. after   19 cycles
 SCF Done:  E(UN12SX) =  -3033.25029958     A.U. after   17 cycles
 SCF Done:  E(UMN12SX) =  -3033.64792604     A.U. after   17 cycles
 SCF Done:  E(UB1B95) =  -3034.37862969     A.U. after   16 cycles
 Normal termination of Gaussian 16 at Wed Feb 12 00:02:32 2020.
 SCF Done:  E(UB3PW91) =  -3033.97273036     A.U. after   16 cycles
 Normal termination of Gaussian 16 at Wed Feb 12 00:19:28 2020.
 SCF Done:  E(UM06L) =  -3034.19122618     A.U. after   18 cycles
 Normal termination of Gaussian 16 at Wed Feb 12 00:39:33 2020.
 Gaussian 16:  ES64L-G16RevA.03 25-Dec-2016

                         Standard orientation:
 ---------------------------------------------------------------------
 Center     Atomic      Atomic             Coordinates (Angstroms)
 Number     Number       Type             X           Y           Z
 ---------------------------------------------------------------------
      1          8           0       -0.318335   -0.183963   -0.687442
      2          6           0       -1.227883   -1.115755   -0.532382
      3          6           0       -2.688975   -0.362025    0.516238
      4          6           0       -2.593330    0.902718   -0.052171
      5          6           0       -3.304038    1.246736   -1.318076
      6         26           0        1.424280    0.137027   -0.035665
      7         17           0        1.905721    2.112075   -0.877793
      8          6           0       -1.717199    1.960799    0.498253
      9         17           0        2.661746   -1.536594   -0.732470
     10         17           0        1.259509    0.209745    2.175714
     11          1           0       -3.490548   -0.981487    0.115471
     12          1           0       -2.207724    2.938760    0.440019
     13          1           0       -1.370178    1.773462    1.512942
     14          1           0       -0.829860    2.023094   -0.152410
     15          1           0       -3.944558    2.119506   -1.135205
     16          1           0       -2.581388    1.552866   -2.086320
     17          1           0       -3.925883    0.434893   -1.697315
     18          6           0       -2.423967   -0.564919    1.999907
     19          1           0       -3.146062    0.019284    2.581908
     20          1           0       -2.555417   -1.612924    2.274819
     21          1           0       -1.419722   -0.258946    2.298601
     22          6           0       -0.833932   -2.299786    0.339572
     23          1           0       -1.666443   -2.985536    0.513724
     24          1           0       -0.054944   -2.830263   -0.222511
     25          1           0       -0.397096   -1.987719    1.287600
     26          6           0       -1.872061   -1.543036   -1.845380
     27          1           0       -1.119521   -2.142649   -2.370743
     28          1           0       -2.762142   -2.160699   -1.700357
     29          1           0       -2.103411   -0.689867   -2.481842
 ---------------------------------------------------------------------

 SCF Done:  E(UB97D3) =  -3034.61152378     A.U. after   16 cycles
 Normal termination of Gaussian 16 at Wed Feb 12 00:52:32 2020.
