 Gaussian 16, Revision A.03,

 --------------------------------
 #t pop=none jul-cc-pvdz upbe1pbe
 --------------------------------
 ------------------------
 theory_abbreviation pbe0
 ------------------------
 Symbolic Z-matrix:
 Charge =  0 Multiplicity = 6

 SCF Done:  E(UPBE1PBE) =  -3033.11657928     A.U. after   21 cycles
 Normal termination of Gaussian 16 at Wed Feb 12 07:02:26 2020.

 ---------------------------------------------------------------------
 #t pop=none jul-cc-pvdz guess=read upbe1pbe empiricaldispersion=gd3bj
 ---------------------------------------------------------------------
 -----------------------------
 theory_abbreviation pbe0_d3bj
 -----------------------------
 Symbolic Z-matrix:
 Charge =  0 Multiplicity = 6

 SCF Done:  E(UPBE1PBE) =  -3033.15429427     A.U. after    1 cycles
 Normal termination of Gaussian 16 at Wed Feb 12 07:04:13 2020.

 -----------------------------------------
 #t pop=none jul-cc-pvdz guess=read ub3lyp
 -----------------------------------------
 -------------------------
 theory_abbreviation b3lyp
 -------------------------
 Symbolic Z-matrix:
 Charge =  0 Multiplicity = 6

 SCF Done:  E(UB3LYP) =  -3034.33210336     A.U. after   13 cycles
 Normal termination of Gaussian 16 at Wed Feb 12 07:18:23 2020.

 -------------------------------------------------------------------
 #t pop=none jul-cc-pvdz guess=read ub3lyp empiricaldispersion=gd3bj
 -------------------------------------------------------------------
 ------------------------------
 theory_abbreviation b3lyp_d3bj
 ------------------------------
 Symbolic Z-matrix:
 Charge =  0 Multiplicity = 6

 SCF Done:  E(UB3LYP) =  -3034.40231353     A.U. after    1 cycles
 Normal termination of Gaussian 16 at Wed Feb 12 07:20:07 2020.

 ----------------------------------------
 #t pop=none jul-cc-pvdz guess=read ub97d
 ----------------------------------------
 ------------------------
 theory_abbreviation b97d
 ------------------------
 Symbolic Z-matrix:
 Charge =  0 Multiplicity = 6

 SCF Done:  E(UB97D) =  -3034.58487778     A.U. after   15 cycles

 ----------------------------------------------------------------
 #t pop=none jul-cc-pvdz guess=read ub97d empiricaldispersion=gd3
 ----------------------------------------------------------------
 -------------------------
 theory_abbreviation b97d3
 -------------------------
 Symbolic Z-matrix:
 Charge =  0 Multiplicity = 6

 SCF Done:  E(UB97D) =  -3034.58680714     A.U. after    1 cycles
 SCF Done:  E(UBHandHLYP) =  -3033.97389422     A.U. after   18 cycles
 SCF Done:  E(UBHandH) =  -3026.31709594     A.U. after   15 cycles
 SCF Done:  E(ULC-wPBE) =  -3033.45755959     A.U. after   19 cycles
 SCF Done:  E(UB-P86) =  -3034.63704689     A.U. after   16 cycles
 SCF Done:  E(UmPW1LYP) =  -3034.05029462     A.U. after   14 cycles
 SCF Done:  E(UmPW1PBE) =  -3033.89106365     A.U. after   14 cycles
 SCF Done:  E(UmPW3PBE) =  -3033.66380118     A.U. after   13 cycles
 SCF Done:  E(UM11) =  -3033.81458473     A.U. after   16 cycles
 SCF Done:  E(UN12SX) =  -3033.25548113     A.U. after   17 cycles
 SCF Done:  E(UMN12SX) =  -3033.65675078     A.U. after   16 cycles
 SCF Done:  E(UB1B95) =  -3034.38700584     A.U. after   14 cycles
 Normal termination of Gaussian 16 at Wed Feb 12 15:40:46 2020.
 SCF Done:  E(UB3PW91) =  -3033.97952415     A.U. after   15 cycles
 Normal termination of Gaussian 16 at Wed Feb 12 15:55:54 2020.
 SCF Done:  E(UM06L) =  -3034.20133302     A.U. after   17 cycles
 Normal termination of Gaussian 16 at Wed Feb 12 16:14:52 2020.
 Gaussian 16:  ES64L-G16RevA.03 25-Dec-2016

                         Standard orientation:
 ---------------------------------------------------------------------
 Center     Atomic      Atomic             Coordinates (Angstroms)
 Number     Number       Type             X           Y           Z
 ---------------------------------------------------------------------
      1          8           0       -0.315503   -0.150886   -0.653688
      2          6           0       -1.161974   -1.095449   -0.570557
      3          6           0       -3.181376    0.016597    0.096800
      4          6           0       -2.348922    1.043613   -0.208339
      5          6           0       -2.302623    1.632430   -1.586598
      6         26           0        1.466031    0.080485    0.055268
      7         17           0        2.097507    1.990215   -0.796018
      8          6           0       -1.556901    1.790165    0.823627
      9         17           0        2.467832   -1.718641   -0.706948
     10         17           0        1.353602    0.077920    2.251876
     11          1           0       -3.802551   -0.374528   -0.706994
     12          1           0       -2.176186    2.615106    1.203313
     13          1           0       -1.262684    1.179553    1.678075
     14          1           0       -0.658866    2.236710    0.388890
     15          1           0       -2.607523    2.685564   -1.528037
     16          1           0       -1.280072    1.621889   -1.978708
     17          1           0       -2.974580    1.128081   -2.285871
     18          6           0       -3.569351   -0.428537    1.480549
     19          1           0       -4.488871    0.088518    1.787070
     20          1           0       -3.785122   -1.501048    1.519086
     21          1           0       -2.807956   -0.205800    2.231715
     22          6           0       -1.109147   -2.026701    0.603069
     23          1           0       -1.997897   -2.652445    0.683502
     24          1           0       -0.242725   -2.679787    0.417780
     25          1           0       -0.916760   -1.496108    1.535792
     26          6           0       -1.726672   -1.623727   -1.859015
     27          1           0       -0.946671   -2.283508   -2.267039
     28          1           0       -2.633041   -2.212801   -1.711460
     29          1           0       -1.891485   -0.826669   -2.583247
 ---------------------------------------------------------------------

 SCF Done:  E(UB97D3) =  -3034.62240004     A.U. after   17 cycles
 Normal termination of Gaussian 16 at Wed Feb 12 16:28:53 2020.
