 Gaussian 16, Revision A.03,

 --------------------------------
 #t pop=none jul-cc-pvdz upbe1pbe
 --------------------------------
 ------------------------
 theory_abbreviation pbe0
 ------------------------
 Symbolic Z-matrix:
 Charge =  0 Multiplicity = 6

 SCF Done:  E(UPBE1PBE) =  -3033.11279854     A.U. after   21 cycles
 Normal termination of Gaussian 16 at Tue Feb 11 23:38:52 2020.

 ---------------------------------------------------------------------
 #t pop=none jul-cc-pvdz guess=read upbe1pbe empiricaldispersion=gd3bj
 ---------------------------------------------------------------------
 -----------------------------
 theory_abbreviation pbe0_d3bj
 -----------------------------
 Symbolic Z-matrix:
 Charge =  0 Multiplicity = 6

 SCF Done:  E(UPBE1PBE) =  -3033.14966818     A.U. after    1 cycles
 Normal termination of Gaussian 16 at Tue Feb 11 23:39:59 2020.

 -----------------------------------------
 #t pop=none jul-cc-pvdz guess=read ub3lyp
 -----------------------------------------
 -------------------------
 theory_abbreviation b3lyp
 -------------------------
 Symbolic Z-matrix:
 Charge =  0 Multiplicity = 6

 SCF Done:  E(UB3LYP) =  -3034.32668695     A.U. after   13 cycles
 Normal termination of Gaussian 16 at Tue Feb 11 23:53:02 2020.

 -------------------------------------------------------------------
 #t pop=none jul-cc-pvdz guess=read ub3lyp empiricaldispersion=gd3bj
 -------------------------------------------------------------------
 ------------------------------
 theory_abbreviation b3lyp_d3bj
 ------------------------------
 Symbolic Z-matrix:
 Charge =  0 Multiplicity = 6

 SCF Done:  E(UB3LYP) =  -3034.39539162     A.U. after    1 cycles
 Normal termination of Gaussian 16 at Tue Feb 11 23:54:09 2020.

 ----------------------------------------
 #t pop=none jul-cc-pvdz guess=read ub97d
 ----------------------------------------
 ------------------------
 theory_abbreviation b97d
 ------------------------
 Symbolic Z-matrix:
 Charge =  0 Multiplicity = 6

 SCF Done:  E(UB97D) =  -3034.58009536     A.U. after   17 cycles

 ----------------------------------------------------------------
 #t pop=none jul-cc-pvdz guess=read ub97d empiricaldispersion=gd3
 ----------------------------------------------------------------
 -------------------------
 theory_abbreviation b97d3
 -------------------------
 Symbolic Z-matrix:
 Charge =  0 Multiplicity = 6

 SCF Done:  E(UB97D) =  -3034.58060408     A.U. after    1 cycles
 SCF Done:  E(UBHandHLYP) =  -3033.96719365     A.U. after   18 cycles
 SCF Done:  E(UBHandH) =  -3026.31361423     A.U. after   16 cycles
 SCF Done:  E(ULC-wPBE) =  -3033.45156438     A.U. after   18 cycles
 SCF Done:  E(UB-P86) =  -3034.63228875     A.U. after   17 cycles
 SCF Done:  E(UmPW1LYP) =  -3034.04461516     A.U. after   16 cycles
 SCF Done:  E(UmPW1PBE) =  -3033.88720044     A.U. after   16 cycles
 SCF Done:  E(UmPW3PBE) =  -3033.65991213     A.U. after   15 cycles
 SCF Done:  E(UM11) =  -3033.80996042     A.U. after   19 cycles
 SCF Done:  E(UN12SX) =  -3033.25247330     A.U. after   17 cycles
 SCF Done:  E(UMN12SX) =  -3033.65005352     A.U. after   17 cycles
 SCF Done:  E(UB1B95) =  -3034.38105761     A.U. after   16 cycles
 Normal termination of Gaussian 16 at Wed Feb 12 08:18:50 2020.
 SCF Done:  E(UB3PW91) =  -3033.97538412     A.U. after   15 cycles
 Normal termination of Gaussian 16 at Wed Feb 12 08:34:14 2020.
 SCF Done:  E(UM06L) =  -3034.19364943     A.U. after   18 cycles
 Normal termination of Gaussian 16 at Wed Feb 12 08:54:26 2020.
 Gaussian 16:  ES64L-G16RevA.03 25-Dec-2016

                         Standard orientation:
 ---------------------------------------------------------------------
 Center     Atomic      Atomic             Coordinates (Angstroms)
 Number     Number       Type             X           Y           Z
 ---------------------------------------------------------------------
      1          8           0       -0.312586   -0.192680   -0.678829
      2          6           0       -1.208397   -1.126163   -0.523833
      3          6           0       -2.701629   -0.361047    0.564680
      4          6           0       -2.652698    0.879244   -0.048441
      5          6           0       -3.414470    1.166606   -1.300585
      6         26           0        1.440722    0.145915   -0.039163
      7         17           0        1.915195    2.102494   -0.917550
      8          6           0       -1.777482    1.972157    0.435117
      9         17           0        2.658070   -1.543220   -0.731513
     10         17           0        1.302376    0.246769    2.168471
     11          1           0       -3.481731   -1.027633    0.198898
     12          1           0       -2.245228    2.950294    0.283353
     13          1           0       -1.458254    1.863712    1.470998
     14          1           0       -0.871074    1.959537   -0.192530
     15          1           0       -4.098518    2.003945   -1.108211
     16          1           0       -2.735755    1.502077   -2.095902
     17          1           0       -4.002610    0.317086   -1.650741
     18          6           0       -2.371300   -0.519351    2.039038
     19          1           0       -3.077864    0.069946    2.635211
     20          1           0       -2.473194   -1.560601    2.349860
     21          1           0       -1.361182   -0.188217    2.287311
     22          6           0       -0.823972   -2.297443    0.366377
     23          1           0       -1.662008   -2.971970    0.556002
     24          1           0       -0.052717   -2.845242   -0.190292
     25          1           0       -0.378763   -1.972997    1.306306
     26          6           0       -1.873517   -1.552552   -1.824085
     27          1           0       -1.137430   -2.171718   -2.350887
     28          1           0       -2.773028   -2.152549   -1.665588
     29          1           0       -2.093845   -0.699460   -2.464433
 ---------------------------------------------------------------------

 SCF Done:  E(UB97D3) =  -3034.61499701     A.U. after   16 cycles
 Normal termination of Gaussian 16 at Wed Feb 12 09:08:03 2020.
