 Gaussian 16, Revision A.03,

 --------------------------------
 #t pop=none jul-cc-pvdz upbe1pbe
 --------------------------------
 ------------------------
 theory_abbreviation pbe0
 ------------------------
 Symbolic Z-matrix:
 Charge =  0 Multiplicity = 6

 SCF Done:  E(UPBE1PBE) =  -3033.10236379     A.U. after   21 cycles
 Normal termination of Gaussian 16 at Tue Feb 11 13:59:16 2020.

 ---------------------------------------------------------------------
 #t pop=none jul-cc-pvdz guess=read upbe1pbe empiricaldispersion=gd3bj
 ---------------------------------------------------------------------
 -----------------------------
 theory_abbreviation pbe0_d3bj
 -----------------------------
 Symbolic Z-matrix:
 Charge =  0 Multiplicity = 6

 SCF Done:  E(UPBE1PBE) =  -3033.13955228     A.U. after    1 cycles
 Normal termination of Gaussian 16 at Tue Feb 11 14:00:27 2020.

 -----------------------------------------
 #t pop=none jul-cc-pvdz guess=read ub3lyp
 -----------------------------------------
 -------------------------
 theory_abbreviation b3lyp
 -------------------------
 Symbolic Z-matrix:
 Charge =  0 Multiplicity = 6

 SCF Done:  E(UB3LYP) =  -3034.31520124     A.U. after   15 cycles
 Normal termination of Gaussian 16 at Tue Feb 11 14:16:17 2020.

 -------------------------------------------------------------------
 #t pop=none jul-cc-pvdz guess=read ub3lyp empiricaldispersion=gd3bj
 -------------------------------------------------------------------
 ------------------------------
 theory_abbreviation b3lyp_d3bj
 ------------------------------
 Symbolic Z-matrix:
 Charge =  0 Multiplicity = 6

 SCF Done:  E(UB3LYP) =  -3034.38445407     A.U. after    1 cycles
 Normal termination of Gaussian 16 at Tue Feb 11 14:17:27 2020.

 ----------------------------------------
 #t pop=none jul-cc-pvdz guess=read ub97d
 ----------------------------------------
 ------------------------
 theory_abbreviation b97d
 ------------------------
 Symbolic Z-matrix:
 Charge =  0 Multiplicity = 6

 SCF Done:  E(UB97D) =  -3034.56692967     A.U. after   16 cycles

 ----------------------------------------------------------------
 #t pop=none jul-cc-pvdz guess=read ub97d empiricaldispersion=gd3
 ----------------------------------------------------------------
 -------------------------
 theory_abbreviation b97d3
 -------------------------
 Symbolic Z-matrix:
 Charge =  0 Multiplicity = 6

 SCF Done:  E(UB97D) =  -3034.56749093     A.U. after    1 cycles
 SCF Done:  E(UBHandHLYP) =  -3033.95861446     A.U. after   17 cycles
 SCF Done:  E(UBHandH) =  -3026.30593655     A.U. after   14 cycles
 SCF Done:  E(ULC-wPBE) =  -3033.44330972     A.U. after   18 cycles
 SCF Done:  E(UB-P86) =  -3034.62035024     A.U. after   15 cycles
 SCF Done:  E(UmPW1LYP) =  -3034.03361868     A.U. after   14 cycles
 SCF Done:  E(UmPW1PBE) =  -3033.87679082     A.U. after   14 cycles
 SCF Done:  E(UmPW3PBE) =  -3033.64897305     A.U. after   14 cycles
 SCF Done:  E(UM11) =  -3033.80009581     A.U. after   19 cycles
 SCF Done:  E(UN12SX) =  -3033.24250059     A.U. after   16 cycles
 SCF Done:  E(UMN12SX) =  -3033.64076154     A.U. after   16 cycles
 SCF Done:  E(UB1B95) =  -3034.37055087     A.U. after   16 cycles
 Normal termination of Gaussian 16 at Tue Feb 11 22:48:29 2020.
 SCF Done:  E(UB3PW91) =  -3033.96431434     A.U. after   13 cycles
 Normal termination of Gaussian 16 at Tue Feb 11 23:03:42 2020.
 SCF Done:  E(UM06L) =  -3034.18182266     A.U. after   17 cycles
 Normal termination of Gaussian 16 at Tue Feb 11 23:22:36 2020.
 Gaussian 16:  ES64L-G16RevA.03 25-Dec-2016

                         Standard orientation:
 ---------------------------------------------------------------------
 Center     Atomic      Atomic             Coordinates (Angstroms)
 Number     Number       Type             X           Y           Z
 ---------------------------------------------------------------------
      1          8           0       -0.327108   -0.168266   -0.588834
      2          6           0       -1.311278   -1.068289   -0.492746
      3          6           0       -2.943537   -0.095206   -0.055324
      4          6           0       -2.213352    1.090470   -0.204626
      5          6           0       -2.080319    1.765951   -1.520039
      6         26           0        1.415583    0.050822    0.037037
      7         17           0        1.897977    2.061419   -0.749527
      8          6           0       -1.583483    1.776818    0.952474
      9         17           0        2.567908   -1.648064   -0.752819
     10         17           0        1.320434    0.032633    2.256639
     11          1           0       -3.563440   -0.352777   -0.911861
     12          1           0       -2.360493    2.409613    1.410810
     13          1           0       -1.233212    1.085775    1.720711
     14          1           0       -0.755436    2.416997    0.641928
     15          1           0       -2.577408    2.744186   -1.436819
     16          1           0       -1.023995    1.961261   -1.733201
     17          1           0       -2.542574    1.212312   -2.338594
     18          6           0       -3.544816   -0.500015    1.275388
     19          1           0       -4.428989    0.115189    1.483272
     20          1           0       -3.872675   -1.542159    1.252828
     21          1           0       -2.853345   -0.381099    2.111707
     22          6           0       -1.151726   -2.066210    0.633071
     23          1           0       -1.998821   -2.749290    0.718012
     24          1           0       -0.258102   -2.653311    0.380031
     25          1           0       -0.953394   -1.579146    1.588477
     26          6           0       -1.667053   -1.686884   -1.831626
     27          1           0       -0.791148   -2.270464   -2.142412
     28          1           0       -2.532908   -2.351313   -1.766891
     29          1           0       -1.836388   -0.922631   -2.592706
 ---------------------------------------------------------------------

 SCF Done:  E(UB97D3) =  -3034.60235090     A.U. after   15 cycles
 Normal termination of Gaussian 16 at Tue Feb 11 23:34:40 2020.
