 Gaussian 16, Revision A.03,

 --------------------------------
 #t pop=none jul-cc-pvdz upbe1pbe
 --------------------------------
 ------------------------
 theory_abbreviation pbe0
 ------------------------
 Symbolic Z-matrix:
 Charge =  0 Multiplicity = 6

 SCF Done:  E(UPBE1PBE) =  -3033.11449645     A.U. after   21 cycles
 Normal termination of Gaussian 16 at Tue Feb 11 13:59:59 2020.

 ---------------------------------------------------------------------
 #t pop=none jul-cc-pvdz guess=read upbe1pbe empiricaldispersion=gd3bj
 ---------------------------------------------------------------------
 -----------------------------
 theory_abbreviation pbe0_d3bj
 -----------------------------
 Symbolic Z-matrix:
 Charge =  0 Multiplicity = 6

 SCF Done:  E(UPBE1PBE) =  -3033.15204456     A.U. after    1 cycles
 Normal termination of Gaussian 16 at Tue Feb 11 14:01:10 2020.

 -----------------------------------------
 #t pop=none jul-cc-pvdz guess=read ub3lyp
 -----------------------------------------
 -------------------------
 theory_abbreviation b3lyp
 -------------------------
 Symbolic Z-matrix:
 Charge =  0 Multiplicity = 6

 SCF Done:  E(UB3LYP) =  -3034.32890424     A.U. after   13 cycles
 Normal termination of Gaussian 16 at Tue Feb 11 14:15:15 2020.

 -------------------------------------------------------------------
 #t pop=none jul-cc-pvdz guess=read ub3lyp empiricaldispersion=gd3bj
 -------------------------------------------------------------------
 ------------------------------
 theory_abbreviation b3lyp_d3bj
 ------------------------------
 Symbolic Z-matrix:
 Charge =  0 Multiplicity = 6

 SCF Done:  E(UB3LYP) =  -3034.39890790     A.U. after    1 cycles
 Normal termination of Gaussian 16 at Tue Feb 11 14:16:27 2020.

 ----------------------------------------
 #t pop=none jul-cc-pvdz guess=read ub97d
 ----------------------------------------
 ------------------------
 theory_abbreviation b97d
 ------------------------
 Symbolic Z-matrix:
 Charge =  0 Multiplicity = 6

 SCF Done:  E(UB97D) =  -3034.58298249     A.U. after   14 cycles

 ----------------------------------------------------------------
 #t pop=none jul-cc-pvdz guess=read ub97d empiricaldispersion=gd3
 ----------------------------------------------------------------
 -------------------------
 theory_abbreviation b97d3
 -------------------------
 Symbolic Z-matrix:
 Charge =  0 Multiplicity = 6

 SCF Done:  E(UB97D) =  -3034.58370521     A.U. after    1 cycles
 SCF Done:  E(UBHandHLYP) =  -3033.96983705     A.U. after   17 cycles
 SCF Done:  E(UBHandH) =  -3026.31537510     A.U. after   16 cycles
 SCF Done:  E(ULC-wPBE) =  -3033.45415690     A.U. after   19 cycles
 SCF Done:  E(UB-P86) =  -3034.63499405     A.U. after   16 cycles
 SCF Done:  E(UmPW1LYP) =  -3034.04698533     A.U. after   15 cycles
 SCF Done:  E(UmPW1PBE) =  -3033.88885810     A.U. after   16 cycles
 SCF Done:  E(UmPW3PBE) =  -3033.66157887     A.U. after   13 cycles
 SCF Done:  E(UM11) =  -3033.81256676     A.U. after   19 cycles
 SCF Done:  E(UN12SX) =  -3033.25406046     A.U. after   17 cycles
 SCF Done:  E(UMN12SX) =  -3033.65316995     A.U. after   17 cycles
 SCF Done:  E(UB1B95) =  -3034.38351759     A.U. after   16 cycles
 Normal termination of Gaussian 16 at Tue Feb 11 23:14:03 2020.
 SCF Done:  E(UB3PW91) =  -3033.97709133     A.U. after   15 cycles
 Normal termination of Gaussian 16 at Tue Feb 11 23:29:57 2020.
 SCF Done:  E(UM06L) =  -3034.19659265     A.U. after   18 cycles
 Normal termination of Gaussian 16 at Tue Feb 11 23:49:54 2020.
 Gaussian 16:  ES64L-G16RevA.03 25-Dec-2016

                         Standard orientation:
 ---------------------------------------------------------------------
 Center     Atomic      Atomic             Coordinates (Angstroms)
 Number     Number       Type             X           Y           Z
 ---------------------------------------------------------------------
      1          8           0       -0.301922   -0.197463   -0.753483
      2          6           0       -1.201023   -1.115024   -0.599595
      3          6           0       -2.800871   -0.275984    0.471153
      4          6           0       -2.535400    0.952659   -0.083560
      5          6           0       -3.088742    1.361075   -1.410728
      6         26           0        1.426748    0.126681   -0.015178
      7         17           0        1.990026    2.081443   -0.831078
      8          6           0       -1.640279    1.955131    0.557665
      9         17           0        2.639426   -1.575246   -0.682244
     10         17           0        1.189365    0.163493    2.187242
     11          1           0       -3.577015   -0.862979   -0.016794
     12          1           0       -2.225274    2.856920    0.786178
     13          1           0       -1.166722    1.605959    1.473188
     14          1           0       -0.857672    2.262694   -0.147202
     15          1           0       -3.584582    2.334659   -1.309437
     16          1           0       -2.269180    1.507325   -2.126979
     17          1           0       -3.808284    0.646762   -1.815031
     18          6           0       -2.623731   -0.558027    1.949512
     19          1           0       -3.378227    0.000234    2.517213
     20          1           0       -2.773309   -1.617172    2.168519
     21          1           0       -1.641056   -0.268980    2.327683
     22          6           0       -0.885560   -2.253208    0.347642
     23          1           0       -1.739387   -2.914256    0.507193
     24          1           0       -0.089754   -2.825410   -0.148837
     25          1           0       -0.488165   -1.904579    1.299982
     26          6           0       -1.884188   -1.548660   -1.882786
     27          1           0       -1.150352   -2.171967   -2.409791
     28          1           0       -2.777763   -2.150633   -1.704866
     29          1           0       -2.114454   -0.705069   -2.530982
 ---------------------------------------------------------------------

 SCF Done:  E(UB97D3) =  -3034.61885227     A.U. after   15 cycles
 Normal termination of Gaussian 16 at Wed Feb 12 00:02:46 2020.
