 Gaussian 16, Revision A.03,

 --------------------------------
 #t pop=none jul-cc-pvdz upbe1pbe
 --------------------------------
 ------------------------
 theory_abbreviation pbe0
 ------------------------
 Symbolic Z-matrix:
 Charge =  0 Multiplicity = 6

 SCF Done:  E(UPBE1PBE) =  -3033.12251346     A.U. after   21 cycles
 Normal termination of Gaussian 16 at Tue Feb 11 23:38:32 2020.

 ---------------------------------------------------------------------
 #t pop=none jul-cc-pvdz guess=read upbe1pbe empiricaldispersion=gd3bj
 ---------------------------------------------------------------------
 -----------------------------
 theory_abbreviation pbe0_d3bj
 -----------------------------
 Symbolic Z-matrix:
 Charge =  0 Multiplicity = 6

 SCF Done:  E(UPBE1PBE) =  -3033.16012500     A.U. after    1 cycles
 Normal termination of Gaussian 16 at Tue Feb 11 23:39:39 2020.

 -----------------------------------------
 #t pop=none jul-cc-pvdz guess=read ub3lyp
 -----------------------------------------
 -------------------------
 theory_abbreviation b3lyp
 -------------------------
 Symbolic Z-matrix:
 Charge =  0 Multiplicity = 6

 SCF Done:  E(UB3LYP) =  -3034.33840509     A.U. after   13 cycles
 Normal termination of Gaussian 16 at Tue Feb 11 23:52:35 2020.

 -------------------------------------------------------------------
 #t pop=none jul-cc-pvdz guess=read ub3lyp empiricaldispersion=gd3bj
 -------------------------------------------------------------------
 ------------------------------
 theory_abbreviation b3lyp_d3bj
 ------------------------------
 Symbolic Z-matrix:
 Charge =  0 Multiplicity = 6

 SCF Done:  E(UB3LYP) =  -3034.40842224     A.U. after    1 cycles
 Normal termination of Gaussian 16 at Tue Feb 11 23:53:42 2020.

 ----------------------------------------
 #t pop=none jul-cc-pvdz guess=read ub97d
 ----------------------------------------
 ------------------------
 theory_abbreviation b97d
 ------------------------
 Symbolic Z-matrix:
 Charge =  0 Multiplicity = 6

 SCF Done:  E(UB97D) =  -3034.59195078     A.U. after   15 cycles

 ----------------------------------------------------------------
 #t pop=none jul-cc-pvdz guess=read ub97d empiricaldispersion=gd3
 ----------------------------------------------------------------
 -------------------------
 theory_abbreviation b97d3
 -------------------------
 Symbolic Z-matrix:
 Charge =  0 Multiplicity = 6

 SCF Done:  E(UB97D) =  -3034.59323327     A.U. after    1 cycles
 SCF Done:  E(UBHandHLYP) =  -3033.97966696     A.U. after   18 cycles
 SCF Done:  E(UBHandH) =  -3026.32233123     A.U. after   14 cycles
 SCF Done:  E(ULC-wPBE) =  -3033.46308858     A.U. after   19 cycles
 SCF Done:  E(UB-P86) =  -3034.64306875     A.U. after   16 cycles
 SCF Done:  E(UmPW1LYP) =  -3034.05659469     A.U. after   13 cycles
 SCF Done:  E(UmPW1PBE) =  -3033.89690414     A.U. after   13 cycles
 SCF Done:  E(UmPW3PBE) =  -3033.66975317     A.U. after   13 cycles
 SCF Done:  E(UM11) =  -3033.82057606     A.U. after   17 cycles
 SCF Done:  E(UN12SX) =  -3033.26149641     A.U. after   17 cycles
 SCF Done:  E(UMN12SX) =  -3033.66246834     A.U. after   16 cycles
 SCF Done:  E(UB1B95) =  -3034.39252076     A.U. after   14 cycles
 Normal termination of Gaussian 16 at Wed Feb 12 08:00:25 2020.
 SCF Done:  E(UB3PW91) =  -3033.98549482     A.U. after   13 cycles
 Normal termination of Gaussian 16 at Wed Feb 12 08:13:27 2020.
 SCF Done:  E(UM06L) =  -3034.20734934     A.U. after   17 cycles
 Normal termination of Gaussian 16 at Wed Feb 12 08:31:52 2020.
 Gaussian 16:  ES64L-G16RevA.03 25-Dec-2016

                         Standard orientation:
 ---------------------------------------------------------------------
 Center     Atomic      Atomic             Coordinates (Angstroms)
 Number     Number       Type             X           Y           Z
 ---------------------------------------------------------------------
      1          8           0       -0.286482   -0.221217   -0.789452
      2          6           0       -1.136047   -1.155864   -0.641485
      3          6           0       -2.975880   -0.147415    0.417075
      4          6           0       -2.497040    0.989214   -0.150451
      5          6           0       -2.868617    1.400582   -1.543450
      6         26           0        1.443610    0.119761    0.016265
      7         17           0        2.073800    2.023350   -0.845537
      8          6           0       -1.597707    1.952277    0.557127
      9         17           0        2.598038   -1.637518   -0.603925
     10         17           0        1.169919    0.190058    2.203243
     11          1           0       -3.708998   -0.715045   -0.153417
     12          1           0       -2.167977    2.863026    0.788002
     13          1           0       -1.182625    1.568509    1.487861
     14          1           0       -0.772291    2.260108   -0.094648
     15          1           0       -3.282562    2.416657   -1.523656
     16          1           0       -1.973624    1.444113   -2.177662
     17          1           0       -3.610464    0.740866   -1.999783
     18          6           0       -2.914187   -0.468927    1.889737
     19          1           0       -3.723791    0.056134    2.413664
     20          1           0       -3.057067   -1.536778    2.074705
     21          1           0       -1.973480   -0.166721    2.356186
     22          6           0       -0.930209   -2.182998    0.435925
     23          1           0       -1.806525   -2.815875    0.580226
     24          1           0       -0.101789   -2.812803    0.079004
     25          1           0       -0.613961   -1.737951    1.378577
     26          6           0       -1.849914   -1.622130   -1.883678
     27          1           0       -1.147184   -2.305958   -2.380813
     28          1           0       -2.762428   -2.177818   -1.662881
     29          1           0       -2.049495   -0.803080   -2.571719
 ---------------------------------------------------------------------

 SCF Done:  E(UB97D3) =  -3034.62854192     A.U. after   17 cycles
 Normal termination of Gaussian 16 at Wed Feb 12 08:45:13 2020.
