 Gaussian 16, Revision A.03,

 --------------------------------
 #t pop=none jul-cc-pvdz upbe1pbe
 --------------------------------
 ------------------------
 theory_abbreviation pbe0
 ------------------------
 Symbolic Z-matrix:
 Charge =  0 Multiplicity = 6

 SCF Done:  E(UPBE1PBE) =  -3033.11636523     A.U. after   21 cycles
 Normal termination of Gaussian 16 at Tue Feb 11 13:59:01 2020.

 ---------------------------------------------------------------------
 #t pop=none jul-cc-pvdz guess=read upbe1pbe empiricaldispersion=gd3bj
 ---------------------------------------------------------------------
 -----------------------------
 theory_abbreviation pbe0_d3bj
 -----------------------------
 Symbolic Z-matrix:
 Charge =  0 Multiplicity = 6

 SCF Done:  E(UPBE1PBE) =  -3033.15232070     A.U. after    1 cycles
 Normal termination of Gaussian 16 at Tue Feb 11 14:00:11 2020.

 -----------------------------------------
 #t pop=none jul-cc-pvdz guess=read ub3lyp
 -----------------------------------------
 -------------------------
 theory_abbreviation b3lyp
 -------------------------
 Symbolic Z-matrix:
 Charge =  0 Multiplicity = 6

 SCF Done:  E(UB3LYP) =  -3034.33118598     A.U. after   15 cycles
 Normal termination of Gaussian 16 at Tue Feb 11 14:15:56 2020.

 -------------------------------------------------------------------
 #t pop=none jul-cc-pvdz guess=read ub3lyp empiricaldispersion=gd3bj
 -------------------------------------------------------------------
 ------------------------------
 theory_abbreviation b3lyp_d3bj
 ------------------------------
 Symbolic Z-matrix:
 Charge =  0 Multiplicity = 6

 SCF Done:  E(UB3LYP) =  -3034.39823120     A.U. after    1 cycles
 Normal termination of Gaussian 16 at Tue Feb 11 14:17:06 2020.

 ----------------------------------------
 #t pop=none jul-cc-pvdz guess=read ub97d
 ----------------------------------------
 ------------------------
 theory_abbreviation b97d
 ------------------------
 Symbolic Z-matrix:
 Charge =  0 Multiplicity = 6

 SCF Done:  E(UB97D) =  -3034.58388888     A.U. after   16 cycles

 ----------------------------------------------------------------
 #t pop=none jul-cc-pvdz guess=read ub97d empiricaldispersion=gd3
 ----------------------------------------------------------------
 -------------------------
 theory_abbreviation b97d3
 -------------------------
 Symbolic Z-matrix:
 Charge =  0 Multiplicity = 6

 SCF Done:  E(UB97D) =  -3034.58431010     A.U. after    3 cycles
 SCF Done:  E(UBHandHLYP) =  -3033.97024041     A.U. after   17 cycles
 SCF Done:  E(UBHandH) =  -3026.31469647     A.U. after   16 cycles
 SCF Done:  E(ULC-wPBE) =  -3033.45330765     A.U. after   18 cycles
 SCF Done:  E(UB-P86) =  -3034.63554659     A.U. after   17 cycles
 SCF Done:  E(UmPW1LYP) =  -3034.04877748     A.U. after   15 cycles
 SCF Done:  E(UmPW1PBE) =  -3033.89098056     A.U. after   16 cycles
 SCF Done:  E(UmPW3PBE) =  -3033.66392045     A.U. after   15 cycles
 SCF Done:  E(UM11) =  -3033.81170661     A.U. after   19 cycles
 SCF Done:  E(UN12SX) =  -3033.25575934     A.U. after   17 cycles
 SCF Done:  E(UMN12SX) =  -3033.65203844     A.U. after   17 cycles
 SCF Done:  E(UB1B95) =  -3034.38410218     A.U. after   16 cycles
 Normal termination of Gaussian 16 at Tue Feb 11 23:07:22 2020.
 SCF Done:  E(UB3PW91) =  -3033.97960603     A.U. after   15 cycles
 Normal termination of Gaussian 16 at Tue Feb 11 23:22:27 2020.
 SCF Done:  E(UM06L) =  -3034.19604677     A.U. after   16 cycles
 Normal termination of Gaussian 16 at Tue Feb 11 23:39:52 2020.
 Gaussian 16:  ES64L-G16RevA.03 25-Dec-2016

                         Standard orientation:
 ---------------------------------------------------------------------
 Center     Atomic      Atomic             Coordinates (Angstroms)
 Number     Number       Type             X           Y           Z
 ---------------------------------------------------------------------
      1          8           0       -0.307203   -0.158554   -0.452308
      2          6           0       -1.170215   -1.104463   -0.221918
      3          6           0       -2.627913   -0.260816    0.856682
      4          6           0       -3.058508    0.675667   -0.072266
      5          6           0       -4.164671    0.388192   -1.031333
      6         26           0        1.532610    0.174126   -0.099079
      7         17           0        1.861942    2.130498   -1.030983
      8          6           0       -2.349650    1.970057   -0.209553
      9         17           0        2.537300   -1.540539   -1.037849
     10         17           0        1.829217    0.217050    2.085954
     11          1           0       -3.266963   -1.138062    0.956154
     12          1           0       -2.827814    2.645261   -0.922007
     13          1           0       -2.214568    2.476126    0.751741
     14          1           0       -1.329340    1.732644   -0.567517
     15          1           0       -4.995715    1.073000   -0.808487
     16          1           0       -3.863848    0.603770   -2.064174
     17          1           0       -4.537027   -0.635696   -0.962349
     18          6           0       -1.929368    0.192749    2.127627
     19          1           0       -2.537032    0.947378    2.639903
     20          1           0       -1.792291   -0.641184    2.817425
     21          1           0       -0.947387    0.627628    1.929149
     22          6           0       -0.749197   -2.174390    0.777848
     23          1           0       -1.577150   -2.824206    1.070582
     24          1           0        0.003724   -2.781472    0.258330
     25          1           0       -0.270334   -1.746675    1.657861
     26          6           0       -1.825986   -1.664412   -1.472315
     27          1           0       -1.080054   -2.310640   -1.950523
     28          1           0       -2.710015   -2.267873   -1.250737
     29          1           0       -2.075160   -0.873486   -2.180534
 ---------------------------------------------------------------------

 SCF Done:  E(UB97D3) =  -3034.61876044     A.U. after   17 cycles
 Normal termination of Gaussian 16 at Tue Feb 11 23:53:07 2020.
