 Gaussian 16, Revision A.03,

 --------------------------------
 #t pop=none jul-cc-pvdz upbe1pbe
 --------------------------------
 ------------------------
 theory_abbreviation pbe0
 ------------------------
 Symbolic Z-matrix:
 Charge =  0 Multiplicity = 6

 SCF Done:  E(UPBE1PBE) =  -3033.11141748     A.U. after   21 cycles
 Normal termination of Gaussian 16 at Tue Feb 11 13:57:08 2020.

 ---------------------------------------------------------------------
 #t pop=none jul-cc-pvdz guess=read upbe1pbe empiricaldispersion=gd3bj
 ---------------------------------------------------------------------
 -----------------------------
 theory_abbreviation pbe0_d3bj
 -----------------------------
 Symbolic Z-matrix:
 Charge =  0 Multiplicity = 6

 SCF Done:  E(UPBE1PBE) =  -3033.14758132     A.U. after    1 cycles
 Normal termination of Gaussian 16 at Tue Feb 11 13:58:17 2020.

 -----------------------------------------
 #t pop=none jul-cc-pvdz guess=read ub3lyp
 -----------------------------------------
 -------------------------
 theory_abbreviation b3lyp
 -------------------------
 Symbolic Z-matrix:
 Charge =  0 Multiplicity = 6

 SCF Done:  E(UB3LYP) =  -3034.32323149     A.U. after   15 cycles
 Normal termination of Gaussian 16 at Tue Feb 11 14:13:32 2020.

 -------------------------------------------------------------------
 #t pop=none jul-cc-pvdz guess=read ub3lyp empiricaldispersion=gd3bj
 -------------------------------------------------------------------
 ------------------------------
 theory_abbreviation b3lyp_d3bj
 ------------------------------
 Symbolic Z-matrix:
 Charge =  0 Multiplicity = 6

 SCF Done:  E(UB3LYP) =  -3034.39073661     A.U. after    1 cycles
 Normal termination of Gaussian 16 at Tue Feb 11 14:14:42 2020.

 ----------------------------------------
 #t pop=none jul-cc-pvdz guess=read ub97d
 ----------------------------------------
 ------------------------
 theory_abbreviation b97d
 ------------------------
 Symbolic Z-matrix:
 Charge =  0 Multiplicity = 6

 SCF Done:  E(UB97D) =  -3034.57524079     A.U. after   16 cycles

 ----------------------------------------------------------------
 #t pop=none jul-cc-pvdz guess=read ub97d empiricaldispersion=gd3
 ----------------------------------------------------------------
 -------------------------
 theory_abbreviation b97d3
 -------------------------
 Symbolic Z-matrix:
 Charge =  0 Multiplicity = 6

 SCF Done:  E(UB97D) =  -3034.57546276     A.U. after    1 cycles
 SCF Done:  E(UBHandHLYP) =  -3033.96475890     A.U. after   17 cycles
 SCF Done:  E(UBHandH) =  -3026.31411666     A.U. after   15 cycles
 SCF Done:  E(ULC-wPBE) =  -3033.45155316     A.U. after   17 cycles
 SCF Done:  E(UB-P86) =  -3034.62955486     A.U. after   17 cycles
 SCF Done:  E(UmPW1LYP) =  -3034.04097354     A.U. after   15 cycles
 SCF Done:  E(UmPW1PBE) =  -3033.88587224     A.U. after   15 cycles
 SCF Done:  E(UmPW3PBE) =  -3033.65826913     A.U. after   14 cycles
 SCF Done:  E(UM11) =  -3033.80526600     A.U. after   18 cycles
 SCF Done:  E(UN12SX) =  -3033.25095015     A.U. after   17 cycles
 SCF Done:  E(UMN12SX) =  -3033.64588587     A.U. after   16 cycles
 SCF Done:  E(UB1B95) =  -3034.37748506     A.U. after   16 cycles
 Normal termination of Gaussian 16 at Tue Feb 11 22:54:45 2020.
 SCF Done:  E(UB3PW91) =  -3033.97361103     A.U. after   15 cycles
 Normal termination of Gaussian 16 at Tue Feb 11 23:10:08 2020.
 SCF Done:  E(UM06L) =  -3034.18944460     A.U. after   17 cycles
 Normal termination of Gaussian 16 at Tue Feb 11 23:28:42 2020.
 Gaussian 16:  ES64L-G16RevA.03 25-Dec-2016

                         Standard orientation:
 ---------------------------------------------------------------------
 Center     Atomic      Atomic             Coordinates (Angstroms)
 Number     Number       Type             X           Y           Z
 ---------------------------------------------------------------------
      1          8           0       -0.323629   -0.088973   -0.405804
      2          6           0       -1.255205   -1.051713   -0.233669
      3          6           0       -2.509284   -0.412807    0.719790
      4          6           0       -2.983736    0.705429   -0.041424
      5          6           0       -4.134411    0.575039   -0.968977
      6         26           0        1.499986    0.172750   -0.086826
      7         17           0        1.789681    2.228990   -0.830469
      8          6           0       -2.219239    1.941359   -0.036773
      9         17           0        2.540524   -1.421637   -1.192260
     10         17           0        1.821396    0.034918    2.101664
     11          1           0       -3.246817   -1.219390    0.737565
     12          1           0       -2.636826    2.744134   -0.644906
     13          1           0       -1.944066    2.288482    0.963273
     14          1           0       -1.234795    1.590302   -0.458743
     15          1           0       -4.964657    1.158431   -0.539419
     16          1           0       -3.917325    1.033123   -1.941319
     17          1           0       -4.470444   -0.454574   -1.098422
     18          6           0       -1.962448   -0.088110    2.117634
     19          1           0       -2.646766    0.579461    2.650843
     20          1           0       -1.869446   -1.003188    2.704135
     21          1           0       -0.976950    0.378732    2.068035
     22          6           0       -0.734590   -2.251946    0.577417
     23          1           0       -1.534381   -2.961217    0.811243
     24          1           0        0.012485   -2.754501   -0.045533
     25          1           0       -0.239789   -1.934681    1.495446
     26          6           0       -1.799625   -1.520053   -1.589326
     27          1           0       -0.991108   -2.046062   -2.105224
     28          1           0       -2.647274   -2.205745   -1.484104
     29          1           0       -2.088453   -0.674811   -2.218917
 ---------------------------------------------------------------------

 SCF Done:  E(UB97D3) =  -3034.61013109     A.U. after   16 cycles
 Normal termination of Gaussian 16 at Tue Feb 11 23:41:24 2020.
