 Gaussian 16, Revision A.03,

 --------------------------------
 #t pop=none jul-cc-pvdz upbe1pbe
 --------------------------------
 ------------------------
 theory_abbreviation pbe0
 ------------------------
 Symbolic Z-matrix:
 Charge =  0 Multiplicity = 6

 SCF Done:  E(UPBE1PBE) =  -3033.11619553     A.U. after   21 cycles
 Normal termination of Gaussian 16 at Tue Feb 11 13:59:18 2020.

 ---------------------------------------------------------------------
 #t pop=none jul-cc-pvdz guess=read upbe1pbe empiricaldispersion=gd3bj
 ---------------------------------------------------------------------
 -----------------------------
 theory_abbreviation pbe0_d3bj
 -----------------------------
 Symbolic Z-matrix:
 Charge =  0 Multiplicity = 6

 SCF Done:  E(UPBE1PBE) =  -3033.15204482     A.U. after    1 cycles
 Normal termination of Gaussian 16 at Tue Feb 11 14:00:28 2020.

 -----------------------------------------
 #t pop=none jul-cc-pvdz guess=read ub3lyp
 -----------------------------------------
 -------------------------
 theory_abbreviation b3lyp
 -------------------------
 Symbolic Z-matrix:
 Charge =  0 Multiplicity = 6

 SCF Done:  E(UB3LYP) =  -3034.33119113     A.U. after   16 cycles
 Normal termination of Gaussian 16 at Tue Feb 11 14:17:06 2020.

 -------------------------------------------------------------------
 #t pop=none jul-cc-pvdz guess=read ub3lyp empiricaldispersion=gd3bj
 -------------------------------------------------------------------
 ------------------------------
 theory_abbreviation b3lyp_d3bj
 ------------------------------
 Symbolic Z-matrix:
 Charge =  0 Multiplicity = 6

 SCF Done:  E(UB3LYP) =  -3034.39804669     A.U. after    1 cycles
 Normal termination of Gaussian 16 at Tue Feb 11 14:18:16 2020.

 ----------------------------------------
 #t pop=none jul-cc-pvdz guess=read ub97d
 ----------------------------------------
 ------------------------
 theory_abbreviation b97d
 ------------------------
 Symbolic Z-matrix:
 Charge =  0 Multiplicity = 6

 SCF Done:  E(UB97D) =  -3034.58396926     A.U. after   16 cycles

 ----------------------------------------------------------------
 #t pop=none jul-cc-pvdz guess=read ub97d empiricaldispersion=gd3
 ----------------------------------------------------------------
 -------------------------
 theory_abbreviation b97d3
 -------------------------
 Symbolic Z-matrix:
 Charge =  0 Multiplicity = 6

 SCF Done:  E(UB97D) =  -3034.58431033     A.U. after    1 cycles
 SCF Done:  E(UBHandHLYP) =  -3033.97002879     A.U. after   17 cycles
 SCF Done:  E(UBHandH) =  -3026.31405350     A.U. after   16 cycles
 SCF Done:  E(ULC-wPBE) =  -3033.45288075     A.U. after   18 cycles
 SCF Done:  E(UB-P86) =  -3034.63543896     A.U. after   17 cycles
 SCF Done:  E(UmPW1LYP) =  -3034.04873777     A.U. after   15 cycles
 SCF Done:  E(UmPW1PBE) =  -3033.89083898     A.U. after   16 cycles
 SCF Done:  E(UmPW3PBE) =  -3033.66381709     A.U. after   14 cycles
 SCF Done:  E(UM11) =  -3033.81136154     A.U. after   19 cycles
 SCF Done:  E(UN12SX) =  -3033.25558210     A.U. after   17 cycles
 SCF Done:  E(UMN12SX) =  -3033.65188108     A.U. after   17 cycles
 SCF Done:  E(UB1B95) =  -3034.38394265     A.U. after   16 cycles
 Normal termination of Gaussian 16 at Tue Feb 11 23:07:50 2020.
 SCF Done:  E(UB3PW91) =  -3033.97953992     A.U. after   15 cycles
 Normal termination of Gaussian 16 at Tue Feb 11 23:23:29 2020.
 SCF Done:  E(UM06L) =  -3034.19594912     A.U. after   16 cycles
 Normal termination of Gaussian 16 at Tue Feb 11 23:41:12 2020.
 Gaussian 16:  ES64L-G16RevA.03 25-Dec-2016

                         Standard orientation:
 ---------------------------------------------------------------------
 Center     Atomic      Atomic             Coordinates (Angstroms)
 Number     Number       Type             X           Y           Z
 ---------------------------------------------------------------------
      1          8           0       -0.297201   -0.159073   -0.444296
      2          6           0       -1.166042   -1.093833   -0.189930
      3          6           0       -2.617167   -0.225472    0.877866
      4          6           0       -3.109218    0.653636   -0.077456
      5          6           0       -4.243917    0.294478   -0.976329
      6         26           0        1.546533    0.171411   -0.104738
      7         17           0        1.890906    2.103423   -1.079303
      8          6           0       -2.430033    1.952814   -0.305692
      9         17           0        2.531339   -1.571860   -1.012456
     10         17           0        1.855256    0.255034    2.076849
     11          1           0       -3.230689   -1.110586    1.044936
     12          1           0       -2.927431    2.569083   -1.057295
     13          1           0       -2.308029    2.524130    0.620760
     14          1           0       -1.403459    1.719937   -0.647913
     15          1           0       -5.078676    0.977849   -0.763011
     16          1           0       -3.984317    0.454146   -2.030330
     17          1           0       -4.594758   -0.729685   -0.835008
     18          6           0       -1.889285    0.310240    2.099940
     19          1           0       -2.497701    1.077106    2.592628
     20          1           0       -1.709219   -0.482807    2.826906
     21          1           0       -0.924997    0.754903    1.845838
     22          6           0       -0.746213   -2.143287    0.832003
     23          1           0       -1.573940   -2.787878    1.136358
     24          1           0        0.008435   -2.759857    0.326273
     25          1           0       -0.269038   -1.697280    1.703925
     26          6           0       -1.827987   -1.675857   -1.426792
     27          1           0       -1.085915   -2.332852   -1.896280
     28          1           0       -2.712968   -2.272157   -1.190422
     29          1           0       -2.077868   -0.896631   -2.148000
 ---------------------------------------------------------------------

 SCF Done:  E(UB97D3) =  -3034.61875162     A.U. after   17 cycles
 Normal termination of Gaussian 16 at Tue Feb 11 23:54:31 2020.
