 Gaussian 16, Revision A.03,

 --------------------------------
 #t pop=none jul-cc-pvdz upbe1pbe
 --------------------------------
 ------------------------
 theory_abbreviation pbe0
 ------------------------
 Symbolic Z-matrix:
 Charge =  0 Multiplicity = 6

 SCF Done:  E(UPBE1PBE) =  -3033.10695271     A.U. after   21 cycles
 Normal termination of Gaussian 16 at Tue Feb 11 13:59:19 2020.

 ---------------------------------------------------------------------
 #t pop=none jul-cc-pvdz guess=read upbe1pbe empiricaldispersion=gd3bj
 ---------------------------------------------------------------------
 -----------------------------
 theory_abbreviation pbe0_d3bj
 -----------------------------
 Symbolic Z-matrix:
 Charge =  0 Multiplicity = 6

 SCF Done:  E(UPBE1PBE) =  -3033.14417045     A.U. after    1 cycles
 Normal termination of Gaussian 16 at Tue Feb 11 14:00:30 2020.

 -----------------------------------------
 #t pop=none jul-cc-pvdz guess=read ub3lyp
 -----------------------------------------
 -------------------------
 theory_abbreviation b3lyp
 -------------------------
 Symbolic Z-matrix:
 Charge =  0 Multiplicity = 6

 SCF Done:  E(UB3LYP) =  -3034.31978238     A.U. after   14 cycles
 Normal termination of Gaussian 16 at Tue Feb 11 14:15:23 2020.

 -------------------------------------------------------------------
 #t pop=none jul-cc-pvdz guess=read ub3lyp empiricaldispersion=gd3bj
 -------------------------------------------------------------------
 ------------------------------
 theory_abbreviation b3lyp_d3bj
 ------------------------------
 Symbolic Z-matrix:
 Charge =  0 Multiplicity = 6

 SCF Done:  E(UB3LYP) =  -3034.38917531     A.U. after    1 cycles
 Normal termination of Gaussian 16 at Tue Feb 11 14:16:34 2020.

 ----------------------------------------
 #t pop=none jul-cc-pvdz guess=read ub97d
 ----------------------------------------
 ------------------------
 theory_abbreviation b97d
 ------------------------
 Symbolic Z-matrix:
 Charge =  0 Multiplicity = 6

 SCF Done:  E(UB97D) =  -3034.57288237     A.U. after   17 cycles

 ----------------------------------------------------------------
 #t pop=none jul-cc-pvdz guess=read ub97d empiricaldispersion=gd3
 ----------------------------------------------------------------
 -------------------------
 theory_abbreviation b97d3
 -------------------------
 Symbolic Z-matrix:
 Charge =  0 Multiplicity = 6

 SCF Done:  E(UB97D) =  -3034.57290817     A.U. after    1 cycles
 SCF Done:  E(UBHandHLYP) =  -3033.96240191     A.U. after   17 cycles
 SCF Done:  E(UBHandH) =  -3026.31025113     A.U. after   16 cycles
 SCF Done:  E(ULC-wPBE) =  -3033.44747879     A.U. after   18 cycles
 SCF Done:  E(UB-P86) =  -3034.62545224     A.U. after   16 cycles
 SCF Done:  E(UmPW1LYP) =  -3034.03807991     A.U. after   15 cycles
 SCF Done:  E(UmPW1PBE) =  -3033.88128597     A.U. after   15 cycles
 SCF Done:  E(UmPW3PBE) =  -3033.65360267     A.U. after   15 cycles
 SCF Done:  E(UM11) =  -3033.80537361     A.U. after   19 cycles
 SCF Done:  E(UN12SX) =  -3033.24694802     A.U. after   17 cycles
 SCF Done:  E(UMN12SX) =  -3033.64533087     A.U. after   16 cycles
 SCF Done:  E(UB1B95) =  -3034.37526473     A.U. after   16 cycles
 Normal termination of Gaussian 16 at Tue Feb 11 23:03:46 2020.
 SCF Done:  E(UB3PW91) =  -3033.96892542     A.U. after   16 cycles
 Normal termination of Gaussian 16 at Tue Feb 11 23:20:12 2020.
 SCF Done:  E(UM06L) =  -3034.18763132     A.U. after   18 cycles
 Normal termination of Gaussian 16 at Tue Feb 11 23:40:08 2020.
 Gaussian 16:  ES64L-G16RevA.03 25-Dec-2016

                         Standard orientation:
 ---------------------------------------------------------------------
 Center     Atomic      Atomic             Coordinates (Angstroms)
 Number     Number       Type             X           Y           Z
 ---------------------------------------------------------------------
      1          8           0       -0.329787   -0.154779   -0.700706
      2          6           0       -1.263965   -1.080351   -0.565892
      3          6           0       -2.788653   -0.265832    0.336541
      4          6           0       -2.414912    0.994045   -0.121964
      5          6           0       -2.803248    1.497940   -1.466712
      6         26           0        1.398643    0.103906   -0.007210
      7         17           0        1.947058    2.103961   -0.743966
      8          6           0       -1.580115    1.918026    0.684542
      9         17           0        2.619606   -1.567798   -0.744620
     10         17           0        1.190330    0.061692    2.211061
     11          1           0       -3.589904   -0.742211   -0.225838
     12          1           0       -2.268039    2.640971    1.152708
     13          1           0       -1.023958    1.426059    1.480914
     14          1           0       -0.889120    2.485059    0.053773
     15          1           0       -3.169436    2.527747   -1.372334
     16          1           0       -1.899934    1.550878   -2.089796
     17          1           0       -3.563340    0.890465   -1.959679
     18          6           0       -2.793414   -0.582457    1.821682
     19          1           0       -3.583030   -0.004756    2.316889
     20          1           0       -3.006331   -1.639644    1.991860
     21          1           0       -1.846340   -0.344992    2.310650
     22          6           0       -0.928291   -2.238353    0.357092
     23          1           0       -1.763978   -2.931271    0.477555
     24          1           0       -0.102127   -2.770553   -0.132834
     25          1           0       -0.568331   -1.903927    1.329363
     26          6           0       -1.840814   -1.542137   -1.896731
     27          1           0       -1.037755   -2.098518   -2.394775
     28          1           0       -2.698333   -2.208071   -1.771218
     29          1           0       -2.104914   -0.709379   -2.547549
 ---------------------------------------------------------------------

 SCF Done:  E(UB97D3) =  -3034.60746467     A.U. after   16 cycles
 Normal termination of Gaussian 16 at Tue Feb 11 23:53:12 2020.
