 Gaussian 16, Revision A.03,

 --------------------------------
 #t pop=none jul-cc-pvdz upbe1pbe
 --------------------------------
 ------------------------
 theory_abbreviation pbe0
 ------------------------
 Symbolic Z-matrix:
 Charge =  0 Multiplicity = 6

 SCF Done:  E(UPBE1PBE) =  -3033.11348012     A.U. after   20 cycles
 Normal termination of Gaussian 16 at Tue Feb 11 13:58:49 2020.

 ---------------------------------------------------------------------
 #t pop=none jul-cc-pvdz guess=read upbe1pbe empiricaldispersion=gd3bj
 ---------------------------------------------------------------------
 -----------------------------
 theory_abbreviation pbe0_d3bj
 -----------------------------
 Symbolic Z-matrix:
 Charge =  0 Multiplicity = 6

 SCF Done:  E(UPBE1PBE) =  -3033.15129488     A.U. after    1 cycles
 Normal termination of Gaussian 16 at Tue Feb 11 14:00:01 2020.

 -----------------------------------------
 #t pop=none jul-cc-pvdz guess=read ub3lyp
 -----------------------------------------
 -------------------------
 theory_abbreviation b3lyp
 -------------------------
 Symbolic Z-matrix:
 Charge =  0 Multiplicity = 6

 SCF Done:  E(UB3LYP) =  -3034.32806886     A.U. after   13 cycles
 Normal termination of Gaussian 16 at Tue Feb 11 14:14:02 2020.

 -------------------------------------------------------------------
 #t pop=none jul-cc-pvdz guess=read ub3lyp empiricaldispersion=gd3bj
 -------------------------------------------------------------------
 ------------------------------
 theory_abbreviation b3lyp_d3bj
 ------------------------------
 Symbolic Z-matrix:
 Charge =  0 Multiplicity = 6

 SCF Done:  E(UB3LYP) =  -3034.39853901     A.U. after    1 cycles
 Normal termination of Gaussian 16 at Tue Feb 11 14:15:14 2020.

 ----------------------------------------
 #t pop=none jul-cc-pvdz guess=read ub97d
 ----------------------------------------
 ------------------------
 theory_abbreviation b97d
 ------------------------
 Symbolic Z-matrix:
 Charge =  0 Multiplicity = 6

 SCF Done:  E(UB97D) =  -3034.58167345     A.U. after   15 cycles

 ----------------------------------------------------------------
 #t pop=none jul-cc-pvdz guess=read ub97d empiricaldispersion=gd3
 ----------------------------------------------------------------
 -------------------------
 theory_abbreviation b97d3
 -------------------------
 Symbolic Z-matrix:
 Charge =  0 Multiplicity = 6

 SCF Done:  E(UB97D) =  -3034.58290575     A.U. after    1 cycles
 SCF Done:  E(UBHandHLYP) =  -3033.96961576     A.U. after   17 cycles
 SCF Done:  E(UBHandH) =  -3026.31473311     A.U. after   14 cycles
 SCF Done:  E(ULC-wPBE) =  -3033.45378793     A.U. after   19 cycles
 SCF Done:  E(UB-P86) =  -3034.63407224     A.U. after   17 cycles
 SCF Done:  E(UmPW1LYP) =  -3034.04621669     A.U. after   13 cycles
 SCF Done:  E(UmPW1PBE) =  -3033.88791264     A.U. after   13 cycles
 SCF Done:  E(UmPW3PBE) =  -3033.66056933     A.U. after   13 cycles
 SCF Done:  E(UM11) =  -3033.81119789     A.U. after   19 cycles
 SCF Done:  E(UN12SX) =  -3033.25278106     A.U. after   17 cycles
 SCF Done:  E(UMN12SX) =  -3033.65248724     A.U. after   16 cycles
 SCF Done:  E(UB1B95) =  -3034.38284004     A.U. after   15 cycles
 Normal termination of Gaussian 16 at Tue Feb 11 22:58:40 2020.
 SCF Done:  E(UB3PW91) =  -3033.97613277     A.U. after   13 cycles
 Normal termination of Gaussian 16 at Tue Feb 11 23:12:34 2020.
 SCF Done:  E(UM06L) =  -3034.19616854     A.U. after   17 cycles
 Normal termination of Gaussian 16 at Tue Feb 11 23:31:45 2020.
 Gaussian 16:  ES64L-G16RevA.03 25-Dec-2016

                         Standard orientation:
 ---------------------------------------------------------------------
 Center     Atomic      Atomic             Coordinates (Angstroms)
 Number     Number       Type             X           Y           Z
 ---------------------------------------------------------------------
      1          8           0       -0.312626   -0.146738   -0.700703
      2          6           0       -1.207465   -1.067218   -0.599590
      3          6           0       -3.012951   -0.118383    0.224987
      4          6           0       -2.391844    1.033730   -0.166092
      5          6           0       -2.539297    1.587726   -1.546818
      6         26           0        1.438593    0.087839    0.033258
      7         17           0        2.061708    2.034630   -0.752389
      8          6           0       -1.561867    1.865047    0.756426
      9         17           0        2.533815   -1.661603   -0.716341
     10         17           0        1.257813    0.058602    2.235619
     11          1           0       -3.708015   -0.564053   -0.483256
     12          1           0       -2.197998    2.674080    1.145028
     13          1           0       -1.165916    1.314560    1.609215
     14          1           0       -0.731359    2.336417    0.222845
     15          1           0       -2.856229    2.635929   -1.476618
     16          1           0       -1.564086    1.589934   -2.049180
     17          1           0       -3.270733    1.047469   -2.151591
     18          6           0       -3.220621   -0.523908    1.663881
     19          1           0       -4.093019    0.006958    2.066856
     20          1           0       -3.427285   -1.593150    1.755567
     21          1           0       -2.369000   -0.285240    2.304748
     22          6           0       -1.029944   -2.116122    0.467125
     23          1           0       -1.895477   -2.773042    0.559313
     24          1           0       -0.171925   -2.718753    0.134840
     25          1           0       -0.765239   -1.684239    1.431925
     26          6           0       -1.789209   -1.553618   -1.906785
     27          1           0       -0.999103   -2.164142   -2.365217
     28          1           0       -2.672154   -2.180214   -1.768223
     29          1           0       -2.002399   -0.733644   -2.591257
 ---------------------------------------------------------------------

 SCF Done:  E(UB97D3) =  -3034.61853539     A.U. after   15 cycles
 Normal termination of Gaussian 16 at Tue Feb 11 23:44:04 2020.
