 Gaussian 16, Revision A.03,

 --------------------------------
 #t pop=none jul-cc-pvdz upbe1pbe
 --------------------------------
 ------------------------
 theory_abbreviation pbe0
 ------------------------
 Symbolic Z-matrix:
 Charge =  0 Multiplicity = 6

 SCF Done:  E(UPBE1PBE) =  -3033.11123854     A.U. after   21 cycles
 Normal termination of Gaussian 16 at Tue Feb 11 13:57:28 2020.

 ---------------------------------------------------------------------
 #t pop=none jul-cc-pvdz guess=read upbe1pbe empiricaldispersion=gd3bj
 ---------------------------------------------------------------------
 -----------------------------
 theory_abbreviation pbe0_d3bj
 -----------------------------
 Symbolic Z-matrix:
 Charge =  0 Multiplicity = 6

 SCF Done:  E(UPBE1PBE) =  -3033.14728802     A.U. after    1 cycles
 Normal termination of Gaussian 16 at Tue Feb 11 13:58:42 2020.

 -----------------------------------------
 #t pop=none jul-cc-pvdz guess=read ub3lyp
 -----------------------------------------
 -------------------------
 theory_abbreviation b3lyp
 -------------------------
 Symbolic Z-matrix:
 Charge =  0 Multiplicity = 6

 SCF Done:  E(UB3LYP) =  -3034.32331608     A.U. after   15 cycles
 Normal termination of Gaussian 16 at Tue Feb 11 14:14:01 2020.

 -------------------------------------------------------------------
 #t pop=none jul-cc-pvdz guess=read ub3lyp empiricaldispersion=gd3bj
 -------------------------------------------------------------------
 ------------------------------
 theory_abbreviation b3lyp_d3bj
 ------------------------------
 Symbolic Z-matrix:
 Charge =  0 Multiplicity = 6

 SCF Done:  E(UB3LYP) =  -3034.39060691     A.U. after    1 cycles
 Normal termination of Gaussian 16 at Tue Feb 11 14:15:13 2020.

 ----------------------------------------
 #t pop=none jul-cc-pvdz guess=read ub97d
 ----------------------------------------
 ------------------------
 theory_abbreviation b97d
 ------------------------
 Symbolic Z-matrix:
 Charge =  0 Multiplicity = 6

 SCF Done:  E(UB97D) =  -3034.57546466     A.U. after   16 cycles

 ----------------------------------------------------------------
 #t pop=none jul-cc-pvdz guess=read ub97d empiricaldispersion=gd3
 ----------------------------------------------------------------
 -------------------------
 theory_abbreviation b97d3
 -------------------------
 Symbolic Z-matrix:
 Charge =  0 Multiplicity = 6

 SCF Done:  E(UB97D) =  -3034.57560491     A.U. after    1 cycles
 SCF Done:  E(UBHandHLYP) =  -3033.96454386     A.U. after   17 cycles
 SCF Done:  E(UBHandH) =  -3026.31334550     A.U. after   15 cycles
 SCF Done:  E(ULC-wPBE) =  -3033.45100920     A.U. after   17 cycles
 SCF Done:  E(UB-P86) =  -3034.62962150     A.U. after   17 cycles
 SCF Done:  E(UmPW1LYP) =  -3034.04100126     A.U. after   15 cycles
 SCF Done:  E(UmPW1PBE) =  -3033.88572061     A.U. after   15 cycles
 SCF Done:  E(UmPW3PBE) =  -3033.65818258     A.U. after   14 cycles
 SCF Done:  E(UM11) =  -3033.80486901     A.U. after   18 cycles
 SCF Done:  E(UN12SX) =  -3033.25078106     A.U. after   17 cycles
 SCF Done:  E(UMN12SX) =  -3033.64571845     A.U. after   16 cycles
 SCF Done:  E(UB1B95) =  -3034.37727766     A.U. after   16 cycles
 Normal termination of Gaussian 16 at Tue Feb 11 23:27:31 2020.
 SCF Done:  E(UB3PW91) =  -3033.97356809     A.U. after   15 cycles
 Normal termination of Gaussian 16 at Tue Feb 11 23:43:11 2020.
 SCF Done:  E(UM06L) =  -3034.18943969     A.U. after   17 cycles
 Normal termination of Gaussian 16 at Wed Feb 12 00:02:15 2020.
 Gaussian 16:  ES64L-G16RevA.03 25-Dec-2016

                         Standard orientation:
 ---------------------------------------------------------------------
 Center     Atomic      Atomic             Coordinates (Angstroms)
 Number     Number       Type             X           Y           Z
 ---------------------------------------------------------------------
      1          8           0       -0.311716   -0.092879   -0.408022
      2          6           0       -1.252937   -1.043493   -0.217137
      3          6           0       -2.502028   -0.393806    0.735584
      4          6           0       -3.028107    0.689424   -0.045085
      5          6           0       -4.209098    0.510125   -0.923551
      6         26           0        1.511691    0.171858   -0.090183
      7         17           0        1.816048    2.214955   -0.860933
      8          6           0       -2.274671    1.933306   -0.110322
      9         17           0        2.544060   -1.442347   -1.175231
     10         17           0        1.837039    0.058062    2.098826
     11          1           0       -3.220252   -1.215270    0.800543
     12          1           0       -2.711194    2.703190   -0.747139
     13          1           0       -1.999735    2.330315    0.871677
     14          1           0       -1.286294    1.582710   -0.520844
     15          1           0       -5.031682    1.099498   -0.487213
     16          1           0       -4.033154    0.933360   -1.919778
     17          1           0       -4.535032   -0.527997   -1.001524
     18          6           0       -1.929868   -0.009590    2.109012
     19          1           0       -2.615140    0.661690    2.636178
     20          1           0       -1.803443   -0.902099    2.723241
     21          1           0       -0.955635    0.473940    2.019231
     22          6           0       -0.735020   -2.237015    0.605987
     23          1           0       -1.536496   -2.940682    0.850509
     24          1           0        0.008553   -2.749119   -0.013384
     25          1           0       -0.235906   -1.910951    1.518722
     26          6           0       -1.808591   -1.522850   -1.564384
     27          1           0       -1.006959   -2.057827   -2.081730
     28          1           0       -2.659268   -2.202713   -1.446344
     29          1           0       -2.098160   -0.681335   -2.199118
 ---------------------------------------------------------------------

 SCF Done:  E(UB97D3) =  -3034.61027900     A.U. after   16 cycles
 Normal termination of Gaussian 16 at Wed Feb 12 00:14:41 2020.
