 Gaussian 16, Revision A.03,

 --------------------------------
 #t pop=none jul-cc-pvdz upbe1pbe
 --------------------------------
 ------------------------
 theory_abbreviation pbe0
 ------------------------
 Symbolic Z-matrix:
 Charge =  0 Multiplicity = 6

 SCF Done:  E(UPBE1PBE) =  -3033.13309337     A.U. after   20 cycles
 Normal termination of Gaussian 16 at Tue Feb 11 14:47:06 2020.

 ---------------------------------------------------------------------
 #t pop=none jul-cc-pvdz guess=read upbe1pbe empiricaldispersion=gd3bj
 ---------------------------------------------------------------------
 -----------------------------
 theory_abbreviation pbe0_d3bj
 -----------------------------
 Symbolic Z-matrix:
 Charge =  0 Multiplicity = 6

 SCF Done:  E(UPBE1PBE) =  -3033.16987181     A.U. after    1 cycles
 Normal termination of Gaussian 16 at Tue Feb 11 14:48:17 2020.

 -----------------------------------------
 #t pop=none jul-cc-pvdz guess=read ub3lyp
 -----------------------------------------
 -------------------------
 theory_abbreviation b3lyp
 -------------------------
 Symbolic Z-matrix:
 Charge =  0 Multiplicity = 6

 SCF Done:  E(UB3LYP) =  -3034.35083027     A.U. after   13 cycles
 Normal termination of Gaussian 16 at Tue Feb 11 15:02:11 2020.

 -------------------------------------------------------------------
 #t pop=none jul-cc-pvdz guess=read ub3lyp empiricaldispersion=gd3bj
 -------------------------------------------------------------------
 ------------------------------
 theory_abbreviation b3lyp_d3bj
 ------------------------------
 Symbolic Z-matrix:
 Charge =  0 Multiplicity = 6

 SCF Done:  E(UB3LYP) =  -3034.41902803     A.U. after    1 cycles
 Normal termination of Gaussian 16 at Tue Feb 11 15:03:22 2020.

 ----------------------------------------
 #t pop=none jul-cc-pvdz guess=read ub97d
 ----------------------------------------
 ------------------------
 theory_abbreviation b97d
 ------------------------
 Symbolic Z-matrix:
 Charge =  0 Multiplicity = 6

 SCF Done:  E(UB97D) =  -3034.60191560     A.U. after   16 cycles

 ----------------------------------------------------------------
 #t pop=none jul-cc-pvdz guess=read ub97d empiricaldispersion=gd3
 ----------------------------------------------------------------
 -------------------------
 theory_abbreviation b97d3
 -------------------------
 Symbolic Z-matrix:
 Charge =  0 Multiplicity = 6

 SCF Done:  E(UB97D) =  -3034.60374121     A.U. after    1 cycles
 SCF Done:  E(UBHandHLYP) =  -3033.99280589     A.U. after   18 cycles
 SCF Done:  E(UBHandH) =  -3026.33068809     A.U. after   14 cycles
 SCF Done:  E(ULC-wPBE) =  -3033.47468751     A.U. after   17 cycles
 SCF Done:  E(UB-P86) =  -3034.65164302     A.U. after   17 cycles
 SCF Done:  E(UmPW1LYP) =  -3034.06918398     A.U. after   13 cycles
 SCF Done:  E(UmPW1PBE) =  -3033.90753271     A.U. after   14 cycles
 SCF Done:  E(UmPW3PBE) =  -3033.68044933     A.U. after   13 cycles
 SCF Done:  E(UM11) =  -3033.83220553     A.U. after   17 cycles
 SCF Done:  E(UN12SX) =  -3033.27195818     A.U. after   16 cycles
 SCF Done:  E(UMN12SX) =  -3033.67446745     A.U. after   16 cycles
 SCF Done:  E(UB1B95) =  -3034.40387982     A.U. after   14 cycles
 Normal termination of Gaussian 16 at Tue Feb 11 23:23:29 2020.
 SCF Done:  E(UB3PW91) =  -3033.99655697     A.U. after   14 cycles
 Normal termination of Gaussian 16 at Tue Feb 11 23:37:24 2020.
 SCF Done:  E(UM06L) =  -3034.21931150     A.U. after   17 cycles
 Normal termination of Gaussian 16 at Tue Feb 11 23:55:53 2020.
 Gaussian 16:  ES64L-G16RevA.03 25-Dec-2016

                         Standard orientation:
 ---------------------------------------------------------------------
 Center     Atomic      Atomic             Coordinates (Angstroms)
 Number     Number       Type             X           Y           Z
 ---------------------------------------------------------------------
      1          8           0        0.249991    0.321430   -0.819776
      2          6           0        1.017860    1.298025   -0.647606
      3          6           0        3.151689    0.027379    0.411747
      4          6           0        2.535388   -0.988118   -0.226414
      5          6           0        2.817122   -1.295505   -1.671538
      6         26           0       -1.466441   -0.139983    0.036351
      7         17           0       -2.099272   -1.968435   -0.956615
      8          6           0        1.613310   -1.966781    0.439991
      9         17           0       -2.629786    1.652781   -0.444091
     10         17           0       -1.143126   -0.341611    2.197521
     11          1           0        3.868489    0.615982   -0.161381
     12          1           0        2.130968   -2.929000    0.556439
     13          1           0        1.269563   -1.650673    1.424495
     14          1           0        0.736899   -2.167115   -0.186618
     15          1           0        3.209332   -2.316519   -1.765149
     16          1           0        1.892347   -1.264861   -2.261994
     17          1           0        3.550122   -0.613140   -2.111467
     18          6           0        3.115750    0.316809    1.887821
     19          1           0        3.974389   -0.152933    2.386965
     20          1           0        3.187861    1.390854    2.089653
     21          1           0        2.211403   -0.058081    2.374027
     22          6           0        0.895674    2.172914    0.559370
     23          1           0        1.784187    2.786266    0.712756
     24          1           0        0.040554    2.838766    0.368212
     25          1           0        0.662651    1.595780    1.454584
     26          6           0        1.786986    1.812370   -1.825744
     27          1           0        1.163793    2.603704   -2.268647
     28          1           0        2.737070    2.262140   -1.533810
     29          1           0        1.932372    1.037898   -2.576607
 ---------------------------------------------------------------------

 SCF Done:  E(UB97D3) =  -3034.63836981     A.U. after   16 cycles
 Normal termination of Gaussian 16 at Wed Feb 12 00:09:43 2020.
