 Gaussian 16, Revision A.03,

 --------------------------------
 #t pop=none jul-cc-pvdz upbe1pbe
 --------------------------------
 ------------------------
 theory_abbreviation pbe0
 ------------------------
 Symbolic Z-matrix:
 Charge =  0 Multiplicity = 6

 SCF Done:  E(UPBE1PBE) =  -3033.12759264     A.U. after   21 cycles
 Normal termination of Gaussian 16 at Tue Feb 11 13:59:44 2020.

 ---------------------------------------------------------------------
 #t pop=none jul-cc-pvdz guess=read upbe1pbe empiricaldispersion=gd3bj
 ---------------------------------------------------------------------
 -----------------------------
 theory_abbreviation pbe0_d3bj
 -----------------------------
 Symbolic Z-matrix:
 Charge =  0 Multiplicity = 6

 SCF Done:  E(UPBE1PBE) =  -3033.16400337     A.U. after    1 cycles
 Normal termination of Gaussian 16 at Tue Feb 11 14:00:53 2020.

 -----------------------------------------
 #t pop=none jul-cc-pvdz guess=read ub3lyp
 -----------------------------------------
 -------------------------
 theory_abbreviation b3lyp
 -------------------------
 Symbolic Z-matrix:
 Charge =  0 Multiplicity = 6

 SCF Done:  E(UB3LYP) =  -3034.34530453     A.U. after   13 cycles
 Normal termination of Gaussian 16 at Tue Feb 11 14:14:24 2020.

 -------------------------------------------------------------------
 #t pop=none jul-cc-pvdz guess=read ub3lyp empiricaldispersion=gd3bj
 -------------------------------------------------------------------
 ------------------------------
 theory_abbreviation b3lyp_d3bj
 ------------------------------
 Symbolic Z-matrix:
 Charge =  0 Multiplicity = 6

 SCF Done:  E(UB3LYP) =  -3034.41287458     A.U. after    1 cycles
 Normal termination of Gaussian 16 at Tue Feb 11 14:15:33 2020.

 ----------------------------------------
 #t pop=none jul-cc-pvdz guess=read ub97d
 ----------------------------------------
 ------------------------
 theory_abbreviation b97d
 ------------------------
 Symbolic Z-matrix:
 Charge =  0 Multiplicity = 6

 SCF Done:  E(UB97D) =  -3034.59715187     A.U. after   15 cycles

 ----------------------------------------------------------------
 #t pop=none jul-cc-pvdz guess=read ub97d empiricaldispersion=gd3
 ----------------------------------------------------------------
 -------------------------
 theory_abbreviation b97d3
 -------------------------
 Symbolic Z-matrix:
 Charge =  0 Multiplicity = 6

 SCF Done:  E(UB97D) =  -3034.59801131     A.U. after    1 cycles
 SCF Done:  E(UBHandHLYP) =  -3033.98549199     A.U. after   18 cycles
 SCF Done:  E(UBHandH) =  -3026.32390283     A.U. after   16 cycles
 SCF Done:  E(ULC-wPBE) =  -3033.46643162     A.U. after   19 cycles
 SCF Done:  E(UB-P86) =  -3034.64684032     A.U. after   16 cycles
 SCF Done:  E(UmPW1LYP) =  -3034.06331809     A.U. after   15 cycles
 SCF Done:  E(UmPW1PBE) =  -3033.90218574     A.U. after   14 cycles
 SCF Done:  E(UmPW3PBE) =  -3033.67529244     A.U. after   12 cycles
 SCF Done:  E(UM11) =  -3033.82379627     A.U. after   17 cycles
 SCF Done:  E(UN12SX) =  -3033.26632231     A.U. after   17 cycles
 SCF Done:  E(UMN12SX) =  -3033.66635215     A.U. after   16 cycles
 SCF Done:  E(UB1B95) =  -3034.39696959     A.U. after   14 cycles
 Normal termination of Gaussian 16 at Tue Feb 11 22:42:44 2020.
 SCF Done:  E(UB3PW91) =  -3033.99137251     A.U. after   15 cycles
 Normal termination of Gaussian 16 at Tue Feb 11 22:59:18 2020.
 SCF Done:  E(UM06L) =  -3034.21151559     A.U. after   18 cycles
 Normal termination of Gaussian 16 at Tue Feb 11 23:18:56 2020.
 Gaussian 16:  ES64L-G16RevA.03 25-Dec-2016

                         Standard orientation:
 ---------------------------------------------------------------------
 Center     Atomic      Atomic             Coordinates (Angstroms)
 Number     Number       Type             X           Y           Z
 ---------------------------------------------------------------------
      1          8           0        0.194416    0.344205   -0.795648
      2          6           0        1.050039    1.257230   -0.599125
      3          6           0        2.857273    0.305807    0.661315
      4          6           0        2.850652   -0.843349   -0.064802
      5          6           0        3.643223   -0.986651   -1.330956
      6         26           0       -1.515204   -0.180173   -0.033628
      7         17           0       -1.997105   -2.036427   -1.070619
      8          6           0        1.983164   -2.012870    0.283648
      9         17           0       -2.769246    1.550669   -0.505829
     10         17           0       -1.239112   -0.453880    2.129314
     11          1           0        3.543846    1.086585    0.335923
     12          1           0        2.524281   -2.957399    0.155337
     13          1           0        1.579010   -1.970646    1.295441
     14          1           0        1.132087   -2.042488   -0.414230
     15          1           0        4.364209   -1.807217   -1.218905
     16          1           0        2.996439   -1.261103   -2.175314
     17          1           0        4.200284   -0.081332   -1.584520
     18          6           0        2.399234    0.401814    2.099381
     19          1           0        3.087721   -0.162074    2.741613
     20          1           0        2.411234    1.435428    2.452115
     21          1           0        1.396855    0.001376    2.263056
     22          6           0        0.780252    2.296469    0.453629
     23          1           0        1.658964    2.899003    0.686782
     24          1           0        0.012520    2.952513    0.017753
     25          1           0        0.357329    1.862959    1.359512
     26          6           0        1.865241    1.673901   -1.794736
     27          1           0        1.231009    2.372353   -2.358879
     28          1           0        2.782659    2.196941   -1.522015
     29          1           0        2.079935    0.825703   -2.443015
 ---------------------------------------------------------------------

 SCF Done:  E(UB97D3) =  -3034.63349545     A.U. after   15 cycles
 Normal termination of Gaussian 16 at Tue Feb 11 23:30:43 2020.
