 Gaussian 16, Revision A.03,

 --------------------------------
 #t pop=none jul-cc-pvdz upbe1pbe
 --------------------------------
 ------------------------
 theory_abbreviation pbe0
 ------------------------
 Symbolic Z-matrix:
 Charge =  0 Multiplicity = 6

 SCF Done:  E(UPBE1PBE) =  -3033.12591988     A.U. after   21 cycles
 Normal termination of Gaussian 16 at Tue Feb 11 13:59:46 2020.

 ---------------------------------------------------------------------
 #t pop=none jul-cc-pvdz guess=read upbe1pbe empiricaldispersion=gd3bj
 ---------------------------------------------------------------------
 -----------------------------
 theory_abbreviation pbe0_d3bj
 -----------------------------
 Symbolic Z-matrix:
 Charge =  0 Multiplicity = 6

 SCF Done:  E(UPBE1PBE) =  -3033.16294742     A.U. after    1 cycles
 Normal termination of Gaussian 16 at Tue Feb 11 14:00:56 2020.

 -----------------------------------------
 #t pop=none jul-cc-pvdz guess=read ub3lyp
 -----------------------------------------
 -------------------------
 theory_abbreviation b3lyp
 -------------------------
 Symbolic Z-matrix:
 Charge =  0 Multiplicity = 6

 SCF Done:  E(UB3LYP) =  -3034.34275365     A.U. after   13 cycles
 Normal termination of Gaussian 16 at Tue Feb 11 14:14:39 2020.

 -------------------------------------------------------------------
 #t pop=none jul-cc-pvdz guess=read ub3lyp empiricaldispersion=gd3bj
 -------------------------------------------------------------------
 ------------------------------
 theory_abbreviation b3lyp_d3bj
 ------------------------------
 Symbolic Z-matrix:
 Charge =  0 Multiplicity = 6

 SCF Done:  E(UB3LYP) =  -3034.41157846     A.U. after    1 cycles
 Normal termination of Gaussian 16 at Tue Feb 11 14:15:50 2020.

 ----------------------------------------
 #t pop=none jul-cc-pvdz guess=read ub97d
 ----------------------------------------
 ------------------------
 theory_abbreviation b97d
 ------------------------
 Symbolic Z-matrix:
 Charge =  0 Multiplicity = 6

 SCF Done:  E(UB97D) =  -3034.59579140     A.U. after   15 cycles

 ----------------------------------------------------------------
 #t pop=none jul-cc-pvdz guess=read ub97d empiricaldispersion=gd3
 ----------------------------------------------------------------
 -------------------------
 theory_abbreviation b97d3
 -------------------------
 Symbolic Z-matrix:
 Charge =  0 Multiplicity = 6

 SCF Done:  E(UB97D) =  -3034.59679792     A.U. after    1 cycles
 SCF Done:  E(UBHandHLYP) =  -3033.98321288     A.U. after   18 cycles
 SCF Done:  E(UBHandH) =  -3026.32378731     A.U. after   16 cycles
 SCF Done:  E(ULC-wPBE) =  -3033.46537726     A.U. after   19 cycles
 SCF Done:  E(UB-P86) =  -3034.64604203     A.U. after   16 cycles
 SCF Done:  E(UmPW1LYP) =  -3034.06082940     A.U. after   14 cycles
 SCF Done:  E(UmPW1PBE) =  -3033.90038899     A.U. after   14 cycles
 SCF Done:  E(UmPW3PBE) =  -3033.67340908     A.U. after   13 cycles
 SCF Done:  E(UM11) =  -3033.82297496     A.U. after   19 cycles
 SCF Done:  E(UN12SX) =  -3033.26481144     A.U. after   18 cycles
 SCF Done:  E(UMN12SX) =  -3033.66522170     A.U. after   16 cycles
 SCF Done:  E(UB1B95) =  -3034.39547721     A.U. after   14 cycles
 Normal termination of Gaussian 16 at Tue Feb 11 22:56:02 2020.
 SCF Done:  E(UB3PW91) =  -3033.98930938     A.U. after   15 cycles
 Normal termination of Gaussian 16 at Tue Feb 11 23:11:33 2020.
 SCF Done:  E(UM06L) =  -3034.21021619     A.U. after   17 cycles
 Normal termination of Gaussian 16 at Tue Feb 11 23:30:23 2020.
 Gaussian 16:  ES64L-G16RevA.03 25-Dec-2016

                         Standard orientation:
 ---------------------------------------------------------------------
 Center     Atomic      Atomic             Coordinates (Angstroms)
 Number     Number       Type             X           Y           Z
 ---------------------------------------------------------------------
      1          8           0       -0.229647   -0.300581   -0.815208
      2          6           0       -1.090014   -1.216922   -0.633330
      3          6           0       -2.861341   -0.274367    0.589984
      4          6           0       -2.705964    0.901177   -0.076170
      5          6           0       -3.387773    1.164485   -1.386337
      6         26           0        1.478246    0.159539   -0.019379
      7         17           0        2.014671    2.045444   -0.976344
      8          6           0       -1.800894    1.994141    0.394480
      9         17           0        2.717636   -1.570151   -0.535595
     10         17           0        1.174270    0.350636    2.152712
     11          1           0       -3.586242   -0.976397    0.180210
     12          1           0       -2.328635    2.955806    0.393392
     13          1           0       -1.381751    1.822814    1.385389
     14          1           0       -0.965898    2.099975   -0.313223
     15          1           0       -4.019439    2.057660   -1.295055
     16          1           0       -2.653451    1.387264   -2.172161
     17          1           0       -4.021249    0.334511   -1.708215
     18          6           0       -2.522730   -0.476505    2.049329
     19          1           0       -3.253104    0.058953    2.669430
     20          1           0       -2.580995   -1.530656    2.329564
     21          1           0       -1.530469   -0.109248    2.318727
     22          6           0       -0.822381   -2.276711    0.400891
     23          1           0       -1.697556   -2.894988    0.604596
     24          1           0       -0.039991   -2.913109   -0.037654
     25          1           0       -0.420321   -1.860952    1.324231
     26          6           0       -1.878815   -1.636480   -1.847572
     27          1           0       -1.227107   -2.330143   -2.397118
     28          1           0       -2.798052   -2.166853   -1.595042
     29          1           0       -2.085299   -0.791713   -2.502344
 ---------------------------------------------------------------------

 SCF Done:  E(UB97D3) =  -3034.63208080     A.U. after   16 cycles
 Normal termination of Gaussian 16 at Tue Feb 11 23:42:37 2020.
