 Gaussian 16, Revision A.03,

 --------------------------------
 #t pop=none jul-cc-pvdz upbe1pbe
 --------------------------------
 ------------------------
 theory_abbreviation pbe0
 ------------------------
 Symbolic Z-matrix:
 Charge =  0 Multiplicity = 6

 SCF Done:  E(UPBE1PBE) =  -3033.13343683     A.U. after   19 cycles
 Normal termination of Gaussian 16 at Tue Feb 11 14:45:51 2020.

 ---------------------------------------------------------------------
 #t pop=none jul-cc-pvdz guess=read upbe1pbe empiricaldispersion=gd3bj
 ---------------------------------------------------------------------
 -----------------------------
 theory_abbreviation pbe0_d3bj
 -----------------------------
 Symbolic Z-matrix:
 Charge =  0 Multiplicity = 6

 SCF Done:  E(UPBE1PBE) =  -3033.17017089     A.U. after    1 cycles
 Normal termination of Gaussian 16 at Tue Feb 11 14:47:02 2020.

 -----------------------------------------
 #t pop=none jul-cc-pvdz guess=read ub3lyp
 -----------------------------------------
 -------------------------
 theory_abbreviation b3lyp
 -------------------------
 Symbolic Z-matrix:
 Charge =  0 Multiplicity = 6

 SCF Done:  E(UB3LYP) =  -3034.35122696     A.U. after   13 cycles
 Normal termination of Gaussian 16 at Tue Feb 11 15:00:48 2020.

 -------------------------------------------------------------------
 #t pop=none jul-cc-pvdz guess=read ub3lyp empiricaldispersion=gd3bj
 -------------------------------------------------------------------
 ------------------------------
 theory_abbreviation b3lyp_d3bj
 ------------------------------
 Symbolic Z-matrix:
 Charge =  0 Multiplicity = 6

 SCF Done:  E(UB3LYP) =  -3034.41935404     A.U. after    1 cycles
 Normal termination of Gaussian 16 at Tue Feb 11 15:01:58 2020.

 ----------------------------------------
 #t pop=none jul-cc-pvdz guess=read ub97d
 ----------------------------------------
 ------------------------
 theory_abbreviation b97d
 ------------------------
 Symbolic Z-matrix:
 Charge =  0 Multiplicity = 6

 SCF Done:  E(UB97D) =  -3034.60285609     A.U. after   15 cycles

 ----------------------------------------------------------------
 #t pop=none jul-cc-pvdz guess=read ub97d empiricaldispersion=gd3
 ----------------------------------------------------------------
 -------------------------
 theory_abbreviation b97d3
 -------------------------
 Symbolic Z-matrix:
 Charge =  0 Multiplicity = 6

 SCF Done:  E(UB97D) =  -3034.60419046     A.U. after    1 cycles
 SCF Done:  E(UBHandHLYP) =  -3033.99273984     A.U. after   15 cycles
 SCF Done:  E(UBHandH) =  -3026.33070310     A.U. after   14 cycles
 SCF Done:  E(ULC-wPBE) =  -3033.47427852     A.U. after   19 cycles
 SCF Done:  E(UB-P86) =  -3034.65223687     A.U. after   16 cycles
 SCF Done:  E(UmPW1LYP) =  -3034.06952518     A.U. after   13 cycles
 SCF Done:  E(UmPW1PBE) =  -3033.90787008     A.U. after   13 cycles
 SCF Done:  E(UmPW3PBE) =  -3033.68085327     A.U. after   13 cycles
 SCF Done:  E(UM11) =  -3033.83185324     A.U. after   17 cycles
 SCF Done:  E(UN12SX) =  -3033.27230425     A.U. after   16 cycles
 SCF Done:  E(UMN12SX) =  -3033.67433338     A.U. after   16 cycles
 SCF Done:  E(UB1B95) =  -3034.40381061     A.U. after   14 cycles
 Normal termination of Gaussian 16 at Tue Feb 11 23:13:28 2020.
 SCF Done:  E(UB3PW91) =  -3033.99694208     A.U. after   13 cycles
 Normal termination of Gaussian 16 at Tue Feb 11 23:26:31 2020.
 SCF Done:  E(UM06L) =  -3034.21926077     A.U. after   17 cycles
 Normal termination of Gaussian 16 at Tue Feb 11 23:44:56 2020.
 Gaussian 16:  ES64L-G16RevA.03 25-Dec-2016

                         Standard orientation:
 ---------------------------------------------------------------------
 Center     Atomic      Atomic             Coordinates (Angstroms)
 Number     Number       Type             X           Y           Z
 ---------------------------------------------------------------------
      1          8           0        0.209236    0.349713   -0.863492
      2          6           0        1.017498    1.294180   -0.672507
      3          6           0        3.013762    0.156796    0.544577
      4          6           0        2.647682   -0.942015   -0.150803
      5          6           0        3.156276   -1.201280   -1.541577
      6         26           0       -1.477315   -0.157886    0.006567
      7         17           0       -2.057026   -2.009128   -0.979131
      8          6           0        1.728031   -2.001247    0.378404
      9         17           0       -2.714261    1.592975   -0.434137
     10         17           0       -1.096603   -0.377194    2.159217
     11          1           0        3.735135    0.824997    0.074262
     12          1           0        2.257006   -2.962283    0.429091
     13          1           0        1.325055   -1.780553    1.366236
     14          1           0        0.886714   -2.151989   -0.310577
     15          1           0        3.687787   -2.161310   -1.570380
     16          1           0        2.322708   -1.290556   -2.251207
     17          1           0        3.843984   -0.425930   -1.890113
     18          6           0        2.775699    0.395367    2.013626
     19          1           0        3.561769   -0.095890    2.602893
     20          1           0        2.819550    1.460188    2.259863
     21          1           0        1.815245    0.007709    2.361597
     22          6           0        0.827740    2.239903    0.473378
     23          1           0        1.713940    2.847424    0.659311
     24          1           0        0.003920    2.905579    0.174818
     25          1           0        0.513636    1.724907    1.381120
     26          6           0        1.833391    1.757494   -1.843554
     27          1           0        1.222572    2.519993   -2.349071
     28          1           0        2.769720    2.227583   -1.540596
     29          1           0        2.011202    0.949194   -2.550447
 ---------------------------------------------------------------------

 SCF Done:  E(UB97D3) =  -3034.63904824     A.U. after   16 cycles
 Normal termination of Gaussian 16 at Tue Feb 11 23:57:29 2020.
