 Gaussian 16, Revision A.03,

 --------------------------------
 #t pop=none jul-cc-pvdz upbe1pbe
 --------------------------------
 ------------------------
 theory_abbreviation pbe0
 ------------------------
 Symbolic Z-matrix:
 Charge =  0 Multiplicity = 6

 SCF Done:  E(UPBE1PBE) =  -3033.10817352     A.U. after   21 cycles
 Normal termination of Gaussian 16 at Tue Feb 11 14:46:59 2020.

 ---------------------------------------------------------------------
 #t pop=none jul-cc-pvdz guess=read upbe1pbe empiricaldispersion=gd3bj
 ---------------------------------------------------------------------
 -----------------------------
 theory_abbreviation pbe0_d3bj
 -----------------------------
 Symbolic Z-matrix:
 Charge =  0 Multiplicity = 6

 SCF Done:  E(UPBE1PBE) =  -3033.14531880     A.U. after    1 cycles
 Normal termination of Gaussian 16 at Tue Feb 11 14:48:12 2020.

 -----------------------------------------
 #t pop=none jul-cc-pvdz guess=read ub3lyp
 -----------------------------------------
 -------------------------
 theory_abbreviation b3lyp
 -------------------------
 Symbolic Z-matrix:
 Charge =  0 Multiplicity = 6

 SCF Done:  E(UB3LYP) =  -3034.32119598     A.U. after   14 cycles
 Normal termination of Gaussian 16 at Tue Feb 11 15:03:17 2020.

 -------------------------------------------------------------------
 #t pop=none jul-cc-pvdz guess=read ub3lyp empiricaldispersion=gd3bj
 -------------------------------------------------------------------
 ------------------------------
 theory_abbreviation b3lyp_d3bj
 ------------------------------
 Symbolic Z-matrix:
 Charge =  0 Multiplicity = 6

 SCF Done:  E(UB3LYP) =  -3034.39045307     A.U. after    1 cycles
 Normal termination of Gaussian 16 at Tue Feb 11 15:04:28 2020.

 ----------------------------------------
 #t pop=none jul-cc-pvdz guess=read ub97d
 ----------------------------------------
 ------------------------
 theory_abbreviation b97d
 ------------------------
 Symbolic Z-matrix:
 Charge =  0 Multiplicity = 6

 SCF Done:  E(UB97D) =  -3034.57444558     A.U. after   17 cycles

 ----------------------------------------------------------------
 #t pop=none jul-cc-pvdz guess=read ub97d empiricaldispersion=gd3
 ----------------------------------------------------------------
 -------------------------
 theory_abbreviation b97d3
 -------------------------
 Symbolic Z-matrix:
 Charge =  0 Multiplicity = 6

 SCF Done:  E(UB97D) =  -3034.57441879     A.U. after    1 cycles
 SCF Done:  E(UBHandHLYP) =  -3033.96348247     A.U. after   17 cycles
 SCF Done:  E(UBHandH) =  -3026.31103110     A.U. after   16 cycles
 SCF Done:  E(ULC-wPBE) =  -3033.44841037     A.U. after   18 cycles
 SCF Done:  E(UB-P86) =  -3034.62682053     A.U. after   16 cycles
 SCF Done:  E(UmPW1LYP) =  -3034.03944388     A.U. after   15 cycles
 SCF Done:  E(UmPW1PBE) =  -3033.88250301     A.U. after   16 cycles
 SCF Done:  E(UmPW3PBE) =  -3033.65488784     A.U. after   15 cycles
 SCF Done:  E(UM11) =  -3033.80653489     A.U. after   19 cycles
 SCF Done:  E(UN12SX) =  -3033.24817242     A.U. after   17 cycles
 SCF Done:  E(UMN12SX) =  -3033.64649187     A.U. after   16 cycles
 SCF Done:  E(UB1B95) =  -3034.37650008     A.U. after   16 cycles
 Normal termination of Gaussian 16 at Wed Feb 12 00:02:33 2020.
 SCF Done:  E(UB3PW91) =  -3033.97023419     A.U. after   16 cycles
 Normal termination of Gaussian 16 at Wed Feb 12 00:19:33 2020.
 SCF Done:  E(UM06L) =  -3034.18898444     A.U. after   18 cycles
 Normal termination of Gaussian 16 at Wed Feb 12 00:39:48 2020.
 Gaussian 16:  ES64L-G16RevA.03 25-Dec-2016

                         Standard orientation:
 ---------------------------------------------------------------------
 Center     Atomic      Atomic             Coordinates (Angstroms)
 Number     Number       Type             X           Y           Z
 ---------------------------------------------------------------------
      1          8           0       -0.321870   -0.172381   -0.714030
      2          6           0       -1.255464   -1.092107   -0.565222
      3          6           0       -2.760374   -0.291206    0.381512
      4          6           0       -2.456379    0.976724   -0.102952
      5          6           0       -2.919535    1.450174   -1.435492
      6         26           0        1.402427    0.112830   -0.016498
      7         17           0        1.936527    2.110902   -0.767099
      8          6           0       -1.603876    1.931278    0.647810
      9         17           0        2.640904   -1.552979   -0.735740
     10         17           0        1.190011    0.089105    2.200871
     11          1           0       -3.568280   -0.801465   -0.140508
     12          1           0       -2.273983    2.685085    1.091522
     13          1           0       -1.034408    1.472949    1.454411
     14          1           0       -0.920598    2.461844   -0.023176
     15          1           0       -3.316023    2.468539   -1.339562
     16          1           0       -2.047677    1.524557   -2.100339
     17          1           0       -3.678979    0.810619   -1.887305
     18          6           0       -2.694633   -0.587435    1.870376
     19          1           0       -3.467316   -0.010502    2.392142
     20          1           0       -2.889559   -1.644024    2.063396
     21          1           0       -1.729073   -0.334938    2.313250
     22          6           0       -0.904334   -2.258570    0.343235
     23          1           0       -1.740822   -2.947462    0.480437
     24          1           0       -0.093493   -2.792005   -0.169991
     25          1           0       -0.519126   -1.931906    1.308431
     26          6           0       -1.860865   -1.544917   -1.887131
     27          1           0       -1.073110   -2.109399   -2.400017
     28          1           0       -2.723461   -2.201737   -1.749168
     29          1           0       -2.125977   -0.707805   -2.531692
 ---------------------------------------------------------------------

 SCF Done:  E(UB97D3) =  -3034.60893809     A.U. after   16 cycles
 Normal termination of Gaussian 16 at Wed Feb 12 00:52:52 2020.
