 Gaussian 16, Revision A.03,

 --------------------------------
 #t pop=none jul-cc-pvdz upbe1pbe
 --------------------------------
 ------------------------
 theory_abbreviation pbe0
 ------------------------
 Symbolic Z-matrix:
 Charge =  0 Multiplicity = 6

 SCF Done:  E(UPBE1PBE) =  -3033.13391346     A.U. after   20 cycles
 Normal termination of Gaussian 16 at Tue Feb 11 23:38:10 2020.

 ---------------------------------------------------------------------
 #t pop=none jul-cc-pvdz guess=read upbe1pbe empiricaldispersion=gd3bj
 ---------------------------------------------------------------------
 -----------------------------
 theory_abbreviation pbe0_d3bj
 -----------------------------
 Symbolic Z-matrix:
 Charge =  0 Multiplicity = 6

 SCF Done:  E(UPBE1PBE) =  -3033.17038505     A.U. after    1 cycles
 Normal termination of Gaussian 16 at Tue Feb 11 23:39:16 2020.

 -----------------------------------------
 #t pop=none jul-cc-pvdz guess=read ub3lyp
 -----------------------------------------
 -------------------------
 theory_abbreviation b3lyp
 -------------------------
 Symbolic Z-matrix:
 Charge =  0 Multiplicity = 6

 SCF Done:  E(UB3LYP) =  -3034.35203426     A.U. after   13 cycles
 Normal termination of Gaussian 16 at Tue Feb 11 23:52:16 2020.

 -------------------------------------------------------------------
 #t pop=none jul-cc-pvdz guess=read ub3lyp empiricaldispersion=gd3bj
 -------------------------------------------------------------------
 ------------------------------
 theory_abbreviation b3lyp_d3bj
 ------------------------------
 Symbolic Z-matrix:
 Charge =  0 Multiplicity = 6

 SCF Done:  E(UB3LYP) =  -3034.41962132     A.U. after    1 cycles
 Normal termination of Gaussian 16 at Tue Feb 11 23:53:23 2020.

 ----------------------------------------
 #t pop=none jul-cc-pvdz guess=read ub97d
 ----------------------------------------
 ------------------------
 theory_abbreviation b97d
 ------------------------
 Symbolic Z-matrix:
 Charge =  0 Multiplicity = 6

 SCF Done:  E(UB97D) =  -3034.60326230     A.U. after   15 cycles

 ----------------------------------------------------------------
 #t pop=none jul-cc-pvdz guess=read ub97d empiricaldispersion=gd3
 ----------------------------------------------------------------
 -------------------------
 theory_abbreviation b97d3
 -------------------------
 Symbolic Z-matrix:
 Charge =  0 Multiplicity = 6

 SCF Done:  E(UB97D) =  -3034.60441409     A.U. after    1 cycles
 SCF Done:  E(UBHandHLYP) =  -3033.99334093     A.U. after   15 cycles
 SCF Done:  E(UBHandH) =  -3026.33045952     A.U. after   14 cycles
 SCF Done:  E(ULC-wPBE) =  -3033.47431433     A.U. after   19 cycles
 SCF Done:  E(UB-P86) =  -3034.65238914     A.U. after   16 cycles
 SCF Done:  E(UmPW1LYP) =  -3034.07029396     A.U. after   13 cycles
 SCF Done:  E(UmPW1PBE) =  -3033.90839535     A.U. after   14 cycles
 SCF Done:  E(UmPW3PBE) =  -3033.68142152     A.U. after   13 cycles
 SCF Done:  E(UM11) =  -3033.83179182     A.U. after   17 cycles
 SCF Done:  E(UN12SX) =  -3033.27274839     A.U. after   16 cycles
 SCF Done:  E(UMN12SX) =  -3033.67445217     A.U. after   16 cycles
 SCF Done:  E(UB1B95) =  -3034.40407458     A.U. after   14 cycles
 Normal termination of Gaussian 16 at Wed Feb 12 07:49:46 2020.
 SCF Done:  E(UB3PW91) =  -3033.99757609     A.U. after   12 cycles
 Normal termination of Gaussian 16 at Wed Feb 12 08:01:49 2020.
 SCF Done:  E(UM06L) =  -3034.21937016     A.U. after   18 cycles
 Normal termination of Gaussian 16 at Wed Feb 12 08:21:14 2020.
 Gaussian 16:  ES64L-G16RevA.03 25-Dec-2016

                         Standard orientation:
 ---------------------------------------------------------------------
 Center     Atomic      Atomic             Coordinates (Angstroms)
 Number     Number       Type             X           Y           Z
 ---------------------------------------------------------------------
      1          8           0        0.176413    0.377938   -0.877710
      2          6           0        0.997069    1.310140   -0.678644
      3          6           0        2.987185    0.206208    0.578647
      4          6           0        2.718715   -0.915760   -0.125689
      5          6           0        3.299797   -1.146316   -1.492936
      6         26           0       -1.493410   -0.169955   -0.002503
      7         17           0       -2.035448   -2.024444   -1.003449
      8          6           0        1.813910   -2.009084    0.359127
      9         17           0       -2.767575    1.560365   -0.412855
     10         17           0       -1.088133   -0.412051    2.142474
     11          1           0        3.694139    0.909796    0.139045
     12          1           0        2.350729   -2.966540    0.374242
     13          1           0        1.402047   -1.829488    1.351828
     14          1           0        0.975713   -2.138674   -0.339390
     15          1           0        3.889760   -2.072104   -1.495813
     16          1           0        2.504972   -1.287146   -2.238067
     17          1           0        3.952880   -0.330787   -1.815322
     18          6           0        2.686414    0.422876    2.040492
     19          1           0        3.457847   -0.062206    2.653567
     20          1           0        2.702362    1.484848    2.300509
     21          1           0        1.720393    0.015066    2.346636
     22          6           0        0.794708    2.267331    0.455873
     23          1           0        1.680712    2.871522    0.652760
     24          1           0       -0.020135    2.934424    0.136630
     25          1           0        0.461191    1.762045    1.362236
     26          6           0        1.832170    1.753455   -1.844238
     27          1           0        1.229305    2.504971   -2.375011
     28          1           0        2.763469    2.229511   -1.535707
     29          1           0        2.021835    0.931202   -2.532050
 ---------------------------------------------------------------------

 SCF Done:  E(UB97D3) =  -3034.63942014     A.U. after   15 cycles
 Normal termination of Gaussian 16 at Wed Feb 12 08:33:05 2020.
