 Gaussian 16, Revision A.03,

 --------------------------------
 #t pop=none jul-cc-pvdz upbe1pbe
 --------------------------------
 ------------------------
 theory_abbreviation pbe0
 ------------------------
 Symbolic Z-matrix:
 Charge =  0 Multiplicity = 6

 SCF Done:  E(UPBE1PBE) =  -3033.10566012     A.U. after   21 cycles
 Normal termination of Gaussian 16 at Tue Feb 11 13:59:53 2020.

 ---------------------------------------------------------------------
 #t pop=none jul-cc-pvdz guess=read upbe1pbe empiricaldispersion=gd3bj
 ---------------------------------------------------------------------
 -----------------------------
 theory_abbreviation pbe0_d3bj
 -----------------------------
 Symbolic Z-matrix:
 Charge =  0 Multiplicity = 6

 SCF Done:  E(UPBE1PBE) =  -3033.14315738     A.U. after    1 cycles
 Normal termination of Gaussian 16 at Tue Feb 11 14:01:05 2020.

 -----------------------------------------
 #t pop=none jul-cc-pvdz guess=read ub3lyp
 -----------------------------------------
 -------------------------
 theory_abbreviation b3lyp
 -------------------------
 Symbolic Z-matrix:
 Charge =  0 Multiplicity = 6

 SCF Done:  E(UB3LYP) =  -3034.31903226     A.U. after   13 cycles
 Normal termination of Gaussian 16 at Tue Feb 11 14:15:11 2020.

 -------------------------------------------------------------------
 #t pop=none jul-cc-pvdz guess=read ub3lyp empiricaldispersion=gd3bj
 -------------------------------------------------------------------
 ------------------------------
 theory_abbreviation b3lyp_d3bj
 ------------------------------
 Symbolic Z-matrix:
 Charge =  0 Multiplicity = 6

 SCF Done:  E(UB3LYP) =  -3034.38890182     A.U. after    1 cycles
 Normal termination of Gaussian 16 at Tue Feb 11 14:16:23 2020.

 ----------------------------------------
 #t pop=none jul-cc-pvdz guess=read ub97d
 ----------------------------------------
 ------------------------
 theory_abbreviation b97d
 ------------------------
 Symbolic Z-matrix:
 Charge =  0 Multiplicity = 6

 SCF Done:  E(UB97D) =  -3034.57190984     A.U. after   15 cycles

 ----------------------------------------------------------------
 #t pop=none jul-cc-pvdz guess=read ub97d empiricaldispersion=gd3
 ----------------------------------------------------------------
 -------------------------
 theory_abbreviation b97d3
 -------------------------
 Symbolic Z-matrix:
 Charge =  0 Multiplicity = 6

 SCF Done:  E(UB97D) =  -3034.57263751     A.U. after    1 cycles
 SCF Done:  E(UBHandHLYP) =  -3033.96144408     A.U. after   17 cycles
 SCF Done:  E(UBHandH) =  -3026.30835168     A.U. after   16 cycles
 SCF Done:  E(ULC-wPBE) =  -3033.44596480     A.U. after   18 cycles
 SCF Done:  E(UB-P86) =  -3034.62490390     A.U. after   17 cycles
 SCF Done:  E(UmPW1LYP) =  -3034.03727467     A.U. after   13 cycles
 SCF Done:  E(UmPW1PBE) =  -3033.88009482     A.U. after   13 cycles
 SCF Done:  E(UmPW3PBE) =  -3033.65248535     A.U. after   14 cycles
 SCF Done:  E(UM11) =  -3033.80342787     A.U. after   19 cycles
 SCF Done:  E(UN12SX) =  -3033.24543118     A.U. after   17 cycles
 SCF Done:  E(UMN12SX) =  -3033.64408217     A.U. after   16 cycles
 SCF Done:  E(UB1B95) =  -3034.37429063     A.U. after   16 cycles
 Normal termination of Gaussian 16 at Tue Feb 11 23:04:00 2020.
 SCF Done:  E(UB3PW91) =  -3033.96789231     A.U. after   14 cycles
 Normal termination of Gaussian 16 at Tue Feb 11 23:18:59 2020.
 SCF Done:  E(UM06L) =  -3034.18625019     A.U. after   18 cycles
 Normal termination of Gaussian 16 at Tue Feb 11 23:39:12 2020.
 Gaussian 16:  ES64L-G16RevA.03 25-Dec-2016

                         Standard orientation:
 ---------------------------------------------------------------------
 Center     Atomic      Atomic             Coordinates (Angstroms)
 Number     Number       Type             X           Y           Z
 ---------------------------------------------------------------------
      1          8           0       -0.329954   -0.121283   -0.624812
      2          6           0       -1.263713   -1.039493   -0.550412
      3          6           0       -2.977560   -0.122875    0.101535
      4          6           0       -2.313898    1.056076   -0.177211
      5          6           0       -2.346779    1.682360   -1.529104
      6         26           0        1.425735    0.070818    0.036995
      7         17           0        2.000576    2.052191   -0.726171
      8          6           0       -1.564530    1.817582    0.860941
      9         17           0        2.520634   -1.658080   -0.768429
     10         17           0        1.300124    0.012754    2.249536
     11          1           0       -3.652149   -0.481622   -0.672711
     12          1           0       -2.272167    2.529406    1.313960
     13          1           0       -1.169682    1.191214    1.660921
     14          1           0       -0.746323    2.393393    0.421548
     15          1           0       -2.697251    2.717310   -1.420825
     16          1           0       -1.327321    1.735986   -1.928487
     17          1           0       -3.003079    1.164859   -2.230906
     18          6           0       -3.353915   -0.542991    1.504843
     19          1           0       -4.240988    0.017871    1.825514
     20          1           0       -3.610803   -1.604127    1.546458
     21          1           0       -2.564283   -0.355492    2.235179
     22          6           0       -1.078557   -2.102035    0.507774
     23          1           0       -1.927822   -2.783524    0.576558
     24          1           0       -0.198731   -2.677177    0.185876
     25          1           0       -0.844300   -1.675774    1.483275
     26          6           0       -1.724487   -1.558611   -1.897843
     27          1           0       -0.876988   -2.128632   -2.300620
     28          1           0       -2.587998   -2.223096   -1.818687
     29          1           0       -1.931637   -0.748373   -2.597482
 ---------------------------------------------------------------------

 SCF Done:  E(UB97D3) =  -3034.60786849     A.U. after   15 cycles
 Normal termination of Gaussian 16 at Tue Feb 11 23:51:24 2020.
