 Gaussian 16, Revision A.03,

 --------------------------------
 #t pop=none jul-cc-pvdz upbe1pbe
 --------------------------------
 ------------------------
 theory_abbreviation pbe0
 ------------------------
 Symbolic Z-matrix:
 Charge =  0 Multiplicity = 6

 SCF Done:  E(UPBE1PBE) =  -3033.09605980     A.U. after   20 cycles
 Normal termination of Gaussian 16 at Tue Feb 11 13:58:51 2020.

 ---------------------------------------------------------------------
 #t pop=none jul-cc-pvdz guess=read upbe1pbe empiricaldispersion=gd3bj
 ---------------------------------------------------------------------
 -----------------------------
 theory_abbreviation pbe0_d3bj
 -----------------------------
 Symbolic Z-matrix:
 Charge =  0 Multiplicity = 6

 SCF Done:  E(UPBE1PBE) =  -3033.13408091     A.U. after    1 cycles
 Normal termination of Gaussian 16 at Tue Feb 11 14:00:02 2020.

 -----------------------------------------
 #t pop=none jul-cc-pvdz guess=read ub3lyp
 -----------------------------------------
 -------------------------
 theory_abbreviation b3lyp
 -------------------------
 Symbolic Z-matrix:
 Charge =  0 Multiplicity = 6

 SCF Done:  E(UB3LYP) =  -3034.30921912     A.U. after   15 cycles
 Normal termination of Gaussian 16 at Tue Feb 11 14:16:09 2020.

 -------------------------------------------------------------------
 #t pop=none jul-cc-pvdz guess=read ub3lyp empiricaldispersion=gd3bj
 -------------------------------------------------------------------
 ------------------------------
 theory_abbreviation b3lyp_d3bj
 ------------------------------
 Symbolic Z-matrix:
 Charge =  0 Multiplicity = 6

 SCF Done:  E(UB3LYP) =  -3034.38010860     A.U. after    1 cycles
 Normal termination of Gaussian 16 at Tue Feb 11 14:17:20 2020.

 ----------------------------------------
 #t pop=none jul-cc-pvdz guess=read ub97d
 ----------------------------------------
 ------------------------
 theory_abbreviation b97d
 ------------------------
 Symbolic Z-matrix:
 Charge =  0 Multiplicity = 6

 SCF Done:  E(UB97D) =  -3034.56244571     A.U. after   16 cycles

 ----------------------------------------------------------------
 #t pop=none jul-cc-pvdz guess=read ub97d empiricaldispersion=gd3
 ----------------------------------------------------------------
 -------------------------
 theory_abbreviation b97d3
 -------------------------
 Symbolic Z-matrix:
 Charge =  0 Multiplicity = 6

 SCF Done:  E(UB97D) =  -3034.56408145     A.U. after    1 cycles
 SCF Done:  E(UBHandHLYP) =  -3033.95125881     A.U. after   17 cycles
 SCF Done:  E(UBHandH) =  -3026.29871474     A.U. after   14 cycles
 SCF Done:  E(ULC-wPBE) =  -3033.43634947     A.U. after   19 cycles
 SCF Done:  E(UB-P86) =  -3034.61690156     A.U. after   17 cycles
 SCF Done:  E(UmPW1LYP) =  -3034.02735776     A.U. after   15 cycles
 SCF Done:  E(UmPW1PBE) =  -3033.87052050     A.U. after   15 cycles
 SCF Done:  E(UmPW3PBE) =  -3033.64296776     A.U. after   13 cycles
 SCF Done:  E(UM11) =  -3033.79302285     A.U. after   18 cycles
 SCF Done:  E(UN12SX) =  -3033.23586214     A.U. after   17 cycles
 SCF Done:  E(UMN12SX) =  -3033.63538402     A.U. after   15 cycles
 SCF Done:  E(UB1B95) =  -3034.36576819     A.U. after   16 cycles
 Normal termination of Gaussian 16 at Tue Feb 11 23:00:00 2020.
 SCF Done:  E(UB3PW91) =  -3033.95832133     A.U. after   15 cycles
 Normal termination of Gaussian 16 at Tue Feb 11 23:16:04 2020.
 SCF Done:  E(UM06L) =  -3034.17688839     A.U. after   17 cycles
 Normal termination of Gaussian 16 at Tue Feb 11 23:35:22 2020.
 Gaussian 16:  ES64L-G16RevA.03 25-Dec-2016

                         Standard orientation:
 ---------------------------------------------------------------------
 Center     Atomic      Atomic             Coordinates (Angstroms)
 Number     Number       Type             X           Y           Z
 ---------------------------------------------------------------------
      1          8           0       -0.363505   -0.062643   -0.483424
      2          6           0       -1.253296   -1.027709   -0.447503
      3          6           0       -3.100579    0.026289   -0.132652
      4          6           0       -2.183011    1.054633   -0.231326
      5          6           0       -1.953014    1.753576   -1.533074
      6         26           0        1.444343    0.051358    0.056586
      7         17           0        2.050359    1.984089   -0.797339
      8          6           0       -1.605140    1.722110    0.977315
      9         17           0        2.354623   -1.765968   -0.792306
     10         17           0        1.443015    0.033512    2.264742
     11          1           0       -3.615763   -0.248235   -1.050407
     12          1           0       -2.359234    2.431192    1.349409
     13          1           0       -1.378280    1.028088    1.787593
     14          1           0       -0.700445    2.280717    0.732306
     15          1           0       -2.526600    2.691507   -1.491661
     16          1           0       -0.900841    2.010926   -1.671409
     17          1           0       -2.318553    1.183879   -2.390142
     18          6           0       -3.785340   -0.404414    1.138276
     19          1           0       -4.704107    0.180773    1.277810
     20          1           0       -4.081994   -1.457041    1.096409
     21          1           0       -3.168775   -0.260047    2.027902
     22          6           0       -1.223981   -1.937607    0.748025
     23          1           0       -2.086420   -2.603772    0.793985
     24          1           0       -0.319723   -2.551812    0.623810
     25          1           0       -1.106009   -1.385028    1.680630
     26          6           0       -1.562786   -1.669266   -1.774126
     27          1           0       -0.667396   -2.252924   -2.032600
     28          1           0       -2.422613   -2.340938   -1.724339
     29          1           0       -1.701195   -0.924896   -2.559397
 ---------------------------------------------------------------------

 SCF Done:  E(UB97D3) =  -3034.60004735     A.U. after   15 cycles
 Normal termination of Gaussian 16 at Tue Feb 11 23:47:35 2020.
