 Gaussian 16, Revision A.03,

 --------------------------------
 #t pop=none jul-cc-pvdz upbe1pbe
 --------------------------------
 ------------------------
 theory_abbreviation pbe0
 ------------------------
 Symbolic Z-matrix:
 Charge =  0 Multiplicity = 6

 SCF Done:  E(UPBE1PBE) =  -3033.12786563     A.U. after   21 cycles
 Normal termination of Gaussian 16 at Tue Feb 11 13:59:51 2020.

 ---------------------------------------------------------------------
 #t pop=none jul-cc-pvdz guess=read upbe1pbe empiricaldispersion=gd3bj
 ---------------------------------------------------------------------
 -----------------------------
 theory_abbreviation pbe0_d3bj
 -----------------------------
 Symbolic Z-matrix:
 Charge =  0 Multiplicity = 6

 SCF Done:  E(UPBE1PBE) =  -3033.16514417     A.U. after    1 cycles
 Normal termination of Gaussian 16 at Tue Feb 11 14:01:01 2020.

 -----------------------------------------
 #t pop=none jul-cc-pvdz guess=read ub3lyp
 -----------------------------------------
 -------------------------
 theory_abbreviation b3lyp
 -------------------------
 Symbolic Z-matrix:
 Charge =  0 Multiplicity = 6

 SCF Done:  E(UB3LYP) =  -3034.34465878     A.U. after   13 cycles
 Normal termination of Gaussian 16 at Tue Feb 11 14:14:39 2020.

 -------------------------------------------------------------------
 #t pop=none jul-cc-pvdz guess=read ub3lyp empiricaldispersion=gd3bj
 -------------------------------------------------------------------
 ------------------------------
 theory_abbreviation b3lyp_d3bj
 ------------------------------
 Symbolic Z-matrix:
 Charge =  0 Multiplicity = 6

 SCF Done:  E(UB3LYP) =  -3034.41394378     A.U. after    1 cycles
 Normal termination of Gaussian 16 at Tue Feb 11 14:15:49 2020.

 ----------------------------------------
 #t pop=none jul-cc-pvdz guess=read ub97d
 ----------------------------------------
 ------------------------
 theory_abbreviation b97d
 ------------------------
 Symbolic Z-matrix:
 Charge =  0 Multiplicity = 6

 SCF Done:  E(UB97D) =  -3034.59727611     A.U. after   15 cycles

 ----------------------------------------------------------------
 #t pop=none jul-cc-pvdz guess=read ub97d empiricaldispersion=gd3
 ----------------------------------------------------------------
 -------------------------
 theory_abbreviation b97d3
 -------------------------
 Symbolic Z-matrix:
 Charge =  0 Multiplicity = 6

 SCF Done:  E(UB97D) =  -3034.59876430     A.U. after    1 cycles
 SCF Done:  E(UBHandHLYP) =  -3033.98623150     A.U. after   17 cycles
 SCF Done:  E(UBHandH) =  -3026.32674618     A.U. after   14 cycles
 SCF Done:  E(ULC-wPBE) =  -3033.46892446     A.U. after   19 cycles
 SCF Done:  E(UB-P86) =  -3034.64764595     A.U. after   16 cycles
 SCF Done:  E(UmPW1LYP) =  -3034.06292954     A.U. after   13 cycles
 SCF Done:  E(UmPW1PBE) =  -3033.90226902     A.U. after   13 cycles
 SCF Done:  E(UmPW3PBE) =  -3033.67516666     A.U. after   13 cycles
 SCF Done:  E(UM11) =  -3033.82635725     A.U. after   16 cycles
 SCF Done:  E(UN12SX) =  -3033.26672029     A.U. after   17 cycles
 SCF Done:  E(UMN12SX) =  -3033.66855643     A.U. after   16 cycles
 SCF Done:  E(UB1B95) =  -3034.39828797     A.U. after   14 cycles
 Normal termination of Gaussian 16 at Tue Feb 11 22:36:33 2020.
 SCF Done:  E(UB3PW91) =  -3033.99107263     A.U. after   13 cycles
 Normal termination of Gaussian 16 at Tue Feb 11 22:50:03 2020.
 SCF Done:  E(UM06L) =  -3034.21370340     A.U. after   17 cycles
 Normal termination of Gaussian 16 at Tue Feb 11 23:09:33 2020.
 Gaussian 16:  ES64L-G16RevA.03 25-Dec-2016

                         Standard orientation:
 ---------------------------------------------------------------------
 Center     Atomic      Atomic             Coordinates (Angstroms)
 Number     Number       Type             X           Y           Z
 ---------------------------------------------------------------------
      1          8           0       -0.268361   -0.264550   -0.810930
      2          6           0       -1.084903   -1.214087   -0.652021
      3          6           0       -3.047866   -0.098369    0.421268
      4          6           0       -2.515579    0.990090   -0.179722
      5          6           0       -2.853706    1.358045   -1.595823
      6         26           0        1.455157    0.127637    0.025039
      7         17           0        2.092247    1.996814   -0.894936
      8          6           0       -1.607274    1.963564    0.507084
      9         17           0        2.610026   -1.649656   -0.530235
     10         17           0        1.153264    0.258125    2.200113
     11          1           0       -3.770129   -0.679960   -0.150341
     12          1           0       -2.151696    2.902921    0.676439
     13          1           0       -1.229982    1.615116    1.467642
     14          1           0       -0.753760    2.214895   -0.132953
     15          1           0       -3.264620    2.375360   -1.622655
     16          1           0       -1.947500    1.374654   -2.215189
     17          1           0       -3.589723    0.685683   -2.044423
     18          6           0       -2.990951   -0.408198    1.894610
     19          1           0       -3.818673    0.095128    2.412265
     20          1           0       -3.105363   -1.479116    2.086285
     21          1           0       -2.062452   -0.077094    2.366429
     22          6           0       -0.918499   -2.175617    0.485609
     23          1           0       -1.802890   -2.795379    0.636308
     24          1           0       -0.080809   -2.828870    0.198234
     25          1           0       -0.633787   -1.673491    1.409851
     26          6           0       -1.829806   -1.697308   -1.863728
     27          1           0       -1.161635   -2.426305   -2.345440
     28          1           0       -2.757760   -2.210683   -1.608603
     29          1           0       -2.009058   -0.893559   -2.575100
 ---------------------------------------------------------------------

 SCF Done:  E(UB97D3) =  -3034.63376561     A.U. after   17 cycles
 Normal termination of Gaussian 16 at Tue Feb 11 23:22:58 2020.
