 Gaussian 16, Revision A.03,

 --------------------------------
 #t pop=none jul-cc-pvdz upbe1pbe
 --------------------------------
 ------------------------
 theory_abbreviation pbe0
 ------------------------
 Symbolic Z-matrix:
 Charge =  0 Multiplicity = 6

 SCF Done:  E(UPBE1PBE) =  -3033.09646211     A.U. after   21 cycles
 Normal termination of Gaussian 16 at Tue Feb 11 14:46:57 2020.

 ---------------------------------------------------------------------
 #t pop=none jul-cc-pvdz guess=read upbe1pbe empiricaldispersion=gd3bj
 ---------------------------------------------------------------------
 -----------------------------
 theory_abbreviation pbe0_d3bj
 -----------------------------
 Symbolic Z-matrix:
 Charge =  0 Multiplicity = 6

 SCF Done:  E(UPBE1PBE) =  -3033.13360867     A.U. after    1 cycles
 Normal termination of Gaussian 16 at Tue Feb 11 14:48:09 2020.

 -----------------------------------------
 #t pop=none jul-cc-pvdz guess=read ub3lyp
 -----------------------------------------
 -------------------------
 theory_abbreviation b3lyp
 -------------------------
 Symbolic Z-matrix:
 Charge =  0 Multiplicity = 6

 SCF Done:  E(UB3LYP) =  -3034.30993498     A.U. after   14 cycles
 Normal termination of Gaussian 16 at Tue Feb 11 15:03:16 2020.

 -------------------------------------------------------------------
 #t pop=none jul-cc-pvdz guess=read ub3lyp empiricaldispersion=gd3bj
 -------------------------------------------------------------------
 ------------------------------
 theory_abbreviation b3lyp_d3bj
 ------------------------------
 Symbolic Z-matrix:
 Charge =  0 Multiplicity = 6

 SCF Done:  E(UB3LYP) =  -3034.37905487     A.U. after    1 cycles
 Normal termination of Gaussian 16 at Tue Feb 11 15:04:28 2020.

 ----------------------------------------
 #t pop=none jul-cc-pvdz guess=read ub97d
 ----------------------------------------
 ------------------------
 theory_abbreviation b97d
 ------------------------
 Symbolic Z-matrix:
 Charge =  0 Multiplicity = 6

 SCF Done:  E(UB97D) =  -3034.56178834     A.U. after   15 cycles

 ----------------------------------------------------------------
 #t pop=none jul-cc-pvdz guess=read ub97d empiricaldispersion=gd3
 ----------------------------------------------------------------
 -------------------------
 theory_abbreviation b97d3
 -------------------------
 Symbolic Z-matrix:
 Charge =  0 Multiplicity = 6

 SCF Done:  E(UB97D) =  -3034.56280085     A.U. after    1 cycles
 SCF Done:  E(UBHandHLYP) =  -3033.95180616     A.U. after   15 cycles
 SCF Done:  E(UBHandH) =  -3026.29783280     A.U. after   15 cycles
 SCF Done:  E(ULC-wPBE) =  -3033.43761224     A.U. after   18 cycles
 SCF Done:  E(UB-P86) =  -3034.61665837     A.U. after   15 cycles
 SCF Done:  E(UmPW1LYP) =  -3034.02812935     A.U. after   15 cycles
 SCF Done:  E(UmPW1PBE) =  -3033.87097930     A.U. after   15 cycles
 SCF Done:  E(UmPW3PBE) =  -3033.64341522     A.U. after   13 cycles
 SCF Done:  E(UM11) =  -3033.79154345     A.U. after   18 cycles
 SCF Done:  E(UN12SX) =  -3033.23673716     A.U. after   16 cycles
 SCF Done:  E(UMN12SX) =  -3033.63362463     A.U. after   15 cycles
 SCF Done:  E(UB1B95) =  -3034.36355380     A.U. after   15 cycles
 Normal termination of Gaussian 16 at Tue Feb 11 23:36:40 2020.
 SCF Done:  E(UB3PW91) =  -3033.95879905     A.U. after   14 cycles
 Normal termination of Gaussian 16 at Tue Feb 11 23:51:43 2020.
 SCF Done:  E(UM06L) =  -3034.17478821     A.U. after   18 cycles
 Normal termination of Gaussian 16 at Wed Feb 12 00:13:18 2020.
 Gaussian 16:  ES64L-G16RevA.03 25-Dec-2016

                         Standard orientation:
 ---------------------------------------------------------------------
 Center     Atomic      Atomic             Coordinates (Angstroms)
 Number     Number       Type             X           Y           Z
 ---------------------------------------------------------------------
      1          8           0       -0.382726   -0.140929   -0.498286
      2          6           0       -1.329258   -1.155066   -0.409196
      3          6           0       -2.929753   -0.070683   -0.154193
      4          6           0       -2.070754    1.087012   -0.268621
      5          6           0       -1.909569    1.767910   -1.579380
      6         26           0        1.396856    0.051745    0.046843
      7         17           0        1.880489    2.031054   -0.816975
      8          6           0       -1.588286    1.814705    0.933139
      9         17           0        2.469805   -1.698767   -0.741467
     10         17           0        1.361992    0.110227    2.263624
     11          1           0       -3.512912   -0.258939   -1.055247
     12          1           0       -2.419677    2.459363    1.261984
     13          1           0       -1.340233    1.149381    1.760782
     14          1           0       -0.727440    2.445116    0.704127
     15          1           0       -2.633846    2.598973   -1.588136
     16          1           0       -0.906789    2.188232   -1.686866
     17          1           0       -2.142635    1.112958   -2.420458
     18          6           0       -3.675163   -0.366496    1.129108
     19          1           0       -4.514287    0.327829    1.264471
     20          1           0       -4.091475   -1.377637    1.096980
     21          1           0       -3.039509   -0.296443    2.014580
     22          6           0       -1.172461   -2.047284    0.792512
     23          1           0       -2.001237   -2.753847    0.886509
     24          1           0       -0.245908   -2.620742    0.649174
     25          1           0       -1.056663   -1.475533    1.714433
     26          6           0       -1.514274   -1.874067   -1.721621
     27          1           0       -0.574914   -2.400712   -1.937608
     28          1           0       -2.328860   -2.602783   -1.675150
     29          1           0       -1.691823   -1.172074   -2.539784
 ---------------------------------------------------------------------

 SCF Done:  E(UB97D3) =  -3034.59786713     A.U. after   15 cycles
 Normal termination of Gaussian 16 at Wed Feb 12 00:25:42 2020.
