 Gaussian 16, Revision A.03,

 --------------------------------
 #t pop=none jul-cc-pvdz upbe1pbe
 --------------------------------
 ------------------------
 theory_abbreviation pbe0
 ------------------------
 Symbolic Z-matrix:
 Charge =  0 Multiplicity = 6

 SCF Done:  E(UPBE1PBE) =  -3033.11817311     A.U. after   20 cycles
 Normal termination of Gaussian 16 at Tue Feb 11 20:05:34 2020.

 ---------------------------------------------------------------------
 #t pop=none jul-cc-pvdz guess=read upbe1pbe empiricaldispersion=gd3bj
 ---------------------------------------------------------------------
 -----------------------------
 theory_abbreviation pbe0_d3bj
 -----------------------------
 Symbolic Z-matrix:
 Charge =  0 Multiplicity = 6

 SCF Done:  E(UPBE1PBE) =  -3033.15588168     A.U. after    1 cycles
 Normal termination of Gaussian 16 at Tue Feb 11 20:06:44 2020.

 -----------------------------------------
 #t pop=none jul-cc-pvdz guess=read ub3lyp
 -----------------------------------------
 -------------------------
 theory_abbreviation b3lyp
 -------------------------
 Symbolic Z-matrix:
 Charge =  0 Multiplicity = 6

 SCF Done:  E(UB3LYP) =  -3034.33354324     A.U. after   13 cycles
 Normal termination of Gaussian 16 at Tue Feb 11 20:20:22 2020.

 -------------------------------------------------------------------
 #t pop=none jul-cc-pvdz guess=read ub3lyp empiricaldispersion=gd3bj
 -------------------------------------------------------------------
 ------------------------------
 theory_abbreviation b3lyp_d3bj
 ------------------------------
 Symbolic Z-matrix:
 Charge =  0 Multiplicity = 6

 SCF Done:  E(UB3LYP) =  -3034.40376752     A.U. after    1 cycles
 Normal termination of Gaussian 16 at Tue Feb 11 20:21:32 2020.

 ----------------------------------------
 #t pop=none jul-cc-pvdz guess=read ub97d
 ----------------------------------------
 ------------------------
 theory_abbreviation b97d
 ------------------------
 Symbolic Z-matrix:
 Charge =  0 Multiplicity = 6

 SCF Done:  E(UB97D) =  -3034.58700557     A.U. after   15 cycles

 ----------------------------------------------------------------
 #t pop=none jul-cc-pvdz guess=read ub97d empiricaldispersion=gd3
 ----------------------------------------------------------------
 -------------------------
 theory_abbreviation b97d3
 -------------------------
 Symbolic Z-matrix:
 Charge =  0 Multiplicity = 6

 SCF Done:  E(UB97D) =  -3034.58836195     A.U. after    1 cycles
 SCF Done:  E(UBHandHLYP) =  -3033.97496212     A.U. after   18 cycles
 SCF Done:  E(UBHandH) =  -3026.31860786     A.U. after   14 cycles
 SCF Done:  E(ULC-wPBE) =  -3033.45862092     A.U. after   19 cycles
 SCF Done:  E(UB-P86) =  -3034.63876579     A.U. after   16 cycles
 SCF Done:  E(UmPW1LYP) =  -3034.05170197     A.U. after   13 cycles
 SCF Done:  E(UmPW1PBE) =  -3033.89261203     A.U. after   13 cycles
 SCF Done:  E(UmPW3PBE) =  -3033.66537503     A.U. after   13 cycles
 SCF Done:  E(UM11) =  -3033.81584462     A.U. after   17 cycles
 SCF Done:  E(UN12SX) =  -3033.25723261     A.U. after   17 cycles
 SCF Done:  E(UMN12SX) =  -3033.65764554     A.U. after   16 cycles
 SCF Done:  E(UB1B95) =  -3034.38792642     A.U. after   15 cycles
 Normal termination of Gaussian 16 at Wed Feb 12 04:51:39 2020.
 SCF Done:  E(UB3PW91) =  -3033.98105491     A.U. after   13 cycles
 Normal termination of Gaussian 16 at Wed Feb 12 05:05:18 2020.
 SCF Done:  E(UM06L) =  -3034.20215113     A.U. after   17 cycles
 Normal termination of Gaussian 16 at Wed Feb 12 05:24:15 2020.
 Gaussian 16:  ES64L-G16RevA.03 25-Dec-2016

                         Standard orientation:
 ---------------------------------------------------------------------
 Center     Atomic      Atomic             Coordinates (Angstroms)
 Number     Number       Type             X           Y           Z
 ---------------------------------------------------------------------
      1          8           0       -0.300046   -0.172832   -0.730433
      2          6           0       -1.172599   -1.098773   -0.616915
      3          6           0       -3.051108   -0.097210    0.253757
      4          6           0       -2.419555    1.029598   -0.171963
      5          6           0       -2.580205    1.551919   -1.566041
      6         26           0        1.448378    0.095091    0.035779
      7         17           0        2.082502    2.020006   -0.782567
      8          6           0       -1.568473    1.880100    0.716656
      9         17           0        2.543095   -1.669369   -0.673904
     10         17           0        1.245201    0.099709    2.231919
     11          1           0       -3.741886   -0.568881   -0.442231
     12          1           0       -2.172685    2.732352    1.059705
     13          1           0       -1.194042    1.360447    1.598053
     14          1           0       -0.718941    2.295351    0.165651
     15          1           0       -2.899447    2.600828   -1.521488
     16          1           0       -1.612477    1.542765   -2.082864
     17          1           0       -3.318105    0.995878   -2.149068
     18          6           0       -3.222641   -0.497791    1.697073
     19          1           0       -4.096631    0.018284    2.116202
     20          1           0       -3.408039   -1.570279    1.800548
     21          1           0       -2.363194   -0.238927    2.319758
     22          6           0       -1.016789   -2.114716    0.480068
     23          1           0       -1.890983   -2.757978    0.583091
     24          1           0       -0.162588   -2.737551    0.175178
     25          1           0       -0.756117   -1.656062    1.433569
     26          6           0       -1.799805   -1.584142   -1.899182
     27          1           0       -1.039237   -2.225405   -2.366861
     28          1           0       -2.695727   -2.183547   -1.730299
     29          1           0       -2.003874   -0.766783   -2.589059
 ---------------------------------------------------------------------

 SCF Done:  E(UB97D3) =  -3034.62388829     A.U. after   16 cycles
 Normal termination of Gaussian 16 at Wed Feb 12 05:37:13 2020.
