 Gaussian 16, Revision A.03,

 --------------------------------
 #t pop=none jul-cc-pvdz upbe1pbe
 --------------------------------
 ------------------------
 theory_abbreviation pbe0
 ------------------------
 Symbolic Z-matrix:
 Charge =  0 Multiplicity = 6

 SCF Done:  E(UPBE1PBE) =  -3033.10453568     A.U. after   21 cycles
 Normal termination of Gaussian 16 at Tue Feb 11 13:59:57 2020.

 ---------------------------------------------------------------------
 #t pop=none jul-cc-pvdz guess=read upbe1pbe empiricaldispersion=gd3bj
 ---------------------------------------------------------------------
 -----------------------------
 theory_abbreviation pbe0_d3bj
 -----------------------------
 Symbolic Z-matrix:
 Charge =  0 Multiplicity = 6

 SCF Done:  E(UPBE1PBE) =  -3033.14175434     A.U. after    1 cycles
 Normal termination of Gaussian 16 at Tue Feb 11 14:01:11 2020.

 -----------------------------------------
 #t pop=none jul-cc-pvdz guess=read ub3lyp
 -----------------------------------------
 -------------------------
 theory_abbreviation b3lyp
 -------------------------
 Symbolic Z-matrix:
 Charge =  0 Multiplicity = 6

 SCF Done:  E(UB3LYP) =  -3034.31667417     A.U. after   14 cycles
 Normal termination of Gaussian 16 at Tue Feb 11 14:16:47 2020.

 -------------------------------------------------------------------
 #t pop=none jul-cc-pvdz guess=read ub3lyp empiricaldispersion=gd3bj
 -------------------------------------------------------------------
 ------------------------------
 theory_abbreviation b3lyp_d3bj
 ------------------------------
 Symbolic Z-matrix:
 Charge =  0 Multiplicity = 6

 SCF Done:  E(UB3LYP) =  -3034.38605794     A.U. after    1 cycles
 Normal termination of Gaussian 16 at Tue Feb 11 14:18:00 2020.

 ----------------------------------------
 #t pop=none jul-cc-pvdz guess=read ub97d
 ----------------------------------------
 ------------------------
 theory_abbreviation b97d
 ------------------------
 Symbolic Z-matrix:
 Charge =  0 Multiplicity = 6

 SCF Done:  E(UB97D) =  -3034.56858881     A.U. after   16 cycles

 ----------------------------------------------------------------
 #t pop=none jul-cc-pvdz guess=read ub97d empiricaldispersion=gd3
 ----------------------------------------------------------------
 -------------------------
 theory_abbreviation b97d3
 -------------------------
 Symbolic Z-matrix:
 Charge =  0 Multiplicity = 6

 SCF Done:  E(UB97D) =  -3034.56876112     A.U. after    2 cycles
 SCF Done:  E(UBHandHLYP) =  -3033.96079357     A.U. after   17 cycles
 SCF Done:  E(UBHandH) =  -3026.30927678     A.U. after   13 cycles
 SCF Done:  E(ULC-wPBE) =  -3033.44665990     A.U. after   18 cycles
 SCF Done:  E(UB-P86) =  -3034.62193476     A.U. after   16 cycles
 SCF Done:  E(UmPW1LYP) =  -3034.03521398     A.U. after   13 cycles
 SCF Done:  E(UmPW1PBE) =  -3033.87885430     A.U. after   13 cycles
 SCF Done:  E(UmPW3PBE) =  -3033.65088282     A.U. after   14 cycles
 SCF Done:  E(UM11) =  -3033.80287799     A.U. after   19 cycles
 SCF Done:  E(UN12SX) =  -3033.24468775     A.U. after   17 cycles
 SCF Done:  E(UMN12SX) =  -3033.64286453     A.U. after   16 cycles
 SCF Done:  E(UB1B95) =  -3034.37215749     A.U. after   16 cycles
 Normal termination of Gaussian 16 at Tue Feb 11 23:18:04 2020.
 SCF Done:  E(UB3PW91) =  -3033.96613601     A.U. after   14 cycles
 Normal termination of Gaussian 16 at Tue Feb 11 23:33:28 2020.
 SCF Done:  E(UM06L) =  -3034.18421165     A.U. after   18 cycles
 Normal termination of Gaussian 16 at Tue Feb 11 23:54:24 2020.
 Gaussian 16:  ES64L-G16RevA.03 25-Dec-2016

                         Standard orientation:
 ---------------------------------------------------------------------
 Center     Atomic      Atomic             Coordinates (Angstroms)
 Number     Number       Type             X           Y           Z
 ---------------------------------------------------------------------
      1          8           0       -0.334236   -0.167007   -0.682850
      2          6           0       -1.297113   -1.100094   -0.541384
      3          6           0       -2.742177   -0.283265    0.275365
      4          6           0       -2.353602    1.010505   -0.139175
      5          6           0       -2.693599    1.542906   -1.480869
      6         26           0        1.381959    0.096585   -0.008953
      7         17           0        1.877123    2.123981   -0.732682
      8          6           0       -1.572878    1.912059    0.733154
      9         17           0        2.653236   -1.540720   -0.742441
     10         17           0        1.171264    0.052944    2.217704
     11          1           0       -3.572562   -0.693746   -0.298621
     12          1           0       -2.312675    2.542912    1.256268
     13          1           0       -0.993507    1.389504    1.493819
     14          1           0       -0.919409    2.571362    0.155717
     15          1           0       -3.035205    2.580791   -1.383824
     16          1           0       -1.761684    1.582175   -2.062575
     17          1           0       -3.443166    0.956021   -2.012103
     18          6           0       -2.825512   -0.589066    1.764274
     19          1           0       -3.616682    0.013235    2.225799
     20          1           0       -3.077478   -1.639604    1.922272
     21          1           0       -1.891090   -0.383679    2.290511
     22          6           0       -0.929178   -2.264416    0.364823
     23          1           0       -1.750169   -2.976970    0.478727
     24          1           0       -0.091472   -2.774020   -0.128176
     25          1           0       -0.579508   -1.933379    1.342381
     26          6           0       -1.818256   -1.578435   -1.892489
     27          1           0       -0.988468   -2.106146   -2.376061
     28          1           0       -2.660099   -2.268978   -1.788750
     29          1           0       -2.097562   -0.751273   -2.545879
 ---------------------------------------------------------------------

 SCF Done:  E(UB97D3) =  -3034.60330968     A.U. after   16 cycles
 Normal termination of Gaussian 16 at Wed Feb 12 00:08:36 2020.
