 Gaussian 16, Revision A.03,

 --------------------------------
 #t pop=none jul-cc-pvdz upbe1pbe
 --------------------------------
 ------------------------
 theory_abbreviation pbe0
 ------------------------
 Symbolic Z-matrix:
 Charge =  0 Multiplicity = 6

 SCF Done:  E(UPBE1PBE) =  -3033.13220683     A.U. after   19 cycles
 Normal termination of Gaussian 16 at Tue Feb 11 23:37:12 2020.

 ---------------------------------------------------------------------
 #t pop=none jul-cc-pvdz guess=read upbe1pbe empiricaldispersion=gd3bj
 ---------------------------------------------------------------------
 -----------------------------
 theory_abbreviation pbe0_d3bj
 -----------------------------
 Symbolic Z-matrix:
 Charge =  0 Multiplicity = 6

 SCF Done:  E(UPBE1PBE) =  -3033.16914508     A.U. after    1 cycles
 Normal termination of Gaussian 16 at Tue Feb 11 23:38:29 2020.

 -----------------------------------------
 #t pop=none jul-cc-pvdz guess=read ub3lyp
 -----------------------------------------
 -------------------------
 theory_abbreviation b3lyp
 -------------------------
 Symbolic Z-matrix:
 Charge =  0 Multiplicity = 6

 SCF Done:  E(UB3LYP) =  -3034.34969309     A.U. after   13 cycles
 Normal termination of Gaussian 16 at Tue Feb 11 23:51:44 2020.

 -------------------------------------------------------------------
 #t pop=none jul-cc-pvdz guess=read ub3lyp empiricaldispersion=gd3bj
 -------------------------------------------------------------------
 ------------------------------
 theory_abbreviation b3lyp_d3bj
 ------------------------------
 Symbolic Z-matrix:
 Charge =  0 Multiplicity = 6

 SCF Done:  E(UB3LYP) =  -3034.41824402     A.U. after    1 cycles
 Normal termination of Gaussian 16 at Tue Feb 11 23:52:57 2020.

 ----------------------------------------
 #t pop=none jul-cc-pvdz guess=read ub97d
 ----------------------------------------
 ------------------------
 theory_abbreviation b97d
 ------------------------
 Symbolic Z-matrix:
 Charge =  0 Multiplicity = 6

 SCF Done:  E(UB97D) =  -3034.60153404     A.U. after   15 cycles

 ----------------------------------------------------------------
 #t pop=none jul-cc-pvdz guess=read ub97d empiricaldispersion=gd3
 ----------------------------------------------------------------
 -------------------------
 theory_abbreviation b97d3
 -------------------------
 Symbolic Z-matrix:
 Charge =  0 Multiplicity = 6

 SCF Done:  E(UB97D) =  -3034.60306023     A.U. after    1 cycles
 SCF Done:  E(UBHandHLYP) =  -3033.99138592     A.U. after   15 cycles
 SCF Done:  E(UBHandH) =  -3026.33010208     A.U. after   14 cycles
 SCF Done:  E(ULC-wPBE) =  -3033.47340808     A.U. after   19 cycles
 SCF Done:  E(UB-P86) =  -3034.65125659     A.U. after   17 cycles
 SCF Done:  E(UmPW1LYP) =  -3034.06801321     A.U. after   13 cycles
 SCF Done:  E(UmPW1PBE) =  -3033.90661608     A.U. after   13 cycles
 SCF Done:  E(UmPW3PBE) =  -3033.67955670     A.U. after   13 cycles
 SCF Done:  E(UM11) =  -3033.83099193     A.U. after   17 cycles
 SCF Done:  E(UN12SX) =  -3033.27108034     A.U. after   16 cycles
 SCF Done:  E(UMN12SX) =  -3033.67330865     A.U. after   16 cycles
 SCF Done:  E(UB1B95) =  -3034.40276123     A.U. after   14 cycles
 Normal termination of Gaussian 16 at Wed Feb 12 08:05:34 2020.
 SCF Done:  E(UB3PW91) =  -3033.99559187     A.U. after   13 cycles
 Normal termination of Gaussian 16 at Wed Feb 12 08:18:36 2020.
 SCF Done:  E(UM06L) =  -3034.21827044     A.U. after   17 cycles
 Normal termination of Gaussian 16 at Wed Feb 12 08:37:59 2020.
 Gaussian 16:  ES64L-G16RevA.03 25-Dec-2016

                         Standard orientation:
 ---------------------------------------------------------------------
 Center     Atomic      Atomic             Coordinates (Angstroms)
 Number     Number       Type             X           Y           Z
 ---------------------------------------------------------------------
      1          8           0        0.239621    0.319810   -0.841703
      2          6           0        1.036663    1.275900   -0.662096
      3          6           0        3.052333    0.104476    0.488923
      4          6           0        2.577740   -0.967969   -0.180400
      5          6           0        2.990971   -1.261765   -1.595523
      6         26           0       -1.464994   -0.144956    0.018467
      7         17           0       -2.080841   -1.992283   -0.952899
      8          6           0        1.655169   -1.989024    0.414456
      9         17           0       -2.660519    1.626550   -0.457973
     10         17           0       -1.115344   -0.339428    2.179044
     11          1           0        3.778278    0.732764   -0.027003
     12          1           0        2.182979   -2.948036    0.506886
     13          1           0        1.271433   -1.717959    1.397283
     14          1           0        0.803624   -2.173070   -0.251861
     15          1           0        3.455651   -2.254840   -1.647716
     16          1           0        2.114426   -1.297027   -2.255950
     17          1           0        3.708311   -0.534352   -1.985317
     18          6           0        2.902516    0.369432    1.964171
     19          1           0        3.714666   -0.122024    2.516945
     20          1           0        2.972212    1.437763    2.190205
     21          1           0        1.958839   -0.001298    2.372148
     22          6           0        0.867611    2.206507    0.498711
     23          1           0        1.754335    2.817784    0.669426
     24          1           0        0.032601    2.870695    0.229118
     25          1           0        0.579703    1.678268    1.407511
     26          6           0        1.825578    1.760154   -1.842695
     27          1           0        1.200218    2.527439   -2.322730
     28          1           0        2.765351    2.230971   -1.551263
     29          1           0        1.992735    0.964750   -2.566420
 ---------------------------------------------------------------------

 SCF Done:  E(UB97D3) =  -3034.63785420     A.U. after   16 cycles
 Normal termination of Gaussian 16 at Wed Feb 12 08:51:34 2020.
