 Gaussian 16, Revision A.03,

 --------------------------------
 #t pop=none jul-cc-pvdz upbe1pbe
 --------------------------------
 ------------------------
 theory_abbreviation pbe0
 ------------------------
 Symbolic Z-matrix:
 Charge =  0 Multiplicity = 6

 SCF Done:  E(UPBE1PBE) =  -3033.10977904     A.U. after   21 cycles
 Normal termination of Gaussian 16 at Tue Feb 11 13:57:06 2020.

 ---------------------------------------------------------------------
 #t pop=none jul-cc-pvdz guess=read upbe1pbe empiricaldispersion=gd3bj
 ---------------------------------------------------------------------
 -----------------------------
 theory_abbreviation pbe0_d3bj
 -----------------------------
 Symbolic Z-matrix:
 Charge =  0 Multiplicity = 6

 SCF Done:  E(UPBE1PBE) =  -3033.14623797     A.U. after    1 cycles
 Normal termination of Gaussian 16 at Tue Feb 11 13:58:16 2020.

 -----------------------------------------
 #t pop=none jul-cc-pvdz guess=read ub3lyp
 -----------------------------------------
 -------------------------
 theory_abbreviation b3lyp
 -------------------------
 Symbolic Z-matrix:
 Charge =  0 Multiplicity = 6

 SCF Done:  E(UB3LYP) =  -3034.32063294     A.U. after   15 cycles
 Normal termination of Gaussian 16 at Tue Feb 11 14:13:42 2020.

 -------------------------------------------------------------------
 #t pop=none jul-cc-pvdz guess=read ub3lyp empiricaldispersion=gd3bj
 -------------------------------------------------------------------
 ------------------------------
 theory_abbreviation b3lyp_d3bj
 ------------------------------
 Symbolic Z-matrix:
 Charge =  0 Multiplicity = 6

 SCF Done:  E(UB3LYP) =  -3034.38870848     A.U. after    1 cycles
 Normal termination of Gaussian 16 at Tue Feb 11 14:14:51 2020.

 ----------------------------------------
 #t pop=none jul-cc-pvdz guess=read ub97d
 ----------------------------------------
 ------------------------
 theory_abbreviation b97d
 ------------------------
 Symbolic Z-matrix:
 Charge =  0 Multiplicity = 6

 SCF Done:  E(UB97D) =  -3034.57225904     A.U. after   16 cycles

 ----------------------------------------------------------------
 #t pop=none jul-cc-pvdz guess=read ub97d empiricaldispersion=gd3
 ----------------------------------------------------------------
 -------------------------
 theory_abbreviation b97d3
 -------------------------
 Symbolic Z-matrix:
 Charge =  0 Multiplicity = 6

 SCF Done:  E(UB97D) =  -3034.57260952     A.U. after    1 cycles
 SCF Done:  E(UBHandHLYP) =  -3033.96333161     A.U. after   17 cycles
 SCF Done:  E(UBHandH) =  -3026.31445814     A.U. after   13 cycles
 SCF Done:  E(ULC-wPBE) =  -3033.45144191     A.U. after   17 cycles
 SCF Done:  E(UB-P86) =  -3034.62726004     A.U. after   17 cycles
 SCF Done:  E(UmPW1LYP) =  -3034.03853087     A.U. after   15 cycles
 SCF Done:  E(UmPW1PBE) =  -3033.88416684     A.U. after   15 cycles
 SCF Done:  E(UmPW3PBE) =  -3033.65633191     A.U. after   14 cycles
 SCF Done:  E(UM11) =  -3033.80388609     A.U. after   18 cycles
 SCF Done:  E(UN12SX) =  -3033.24922135     A.U. after   17 cycles
 SCF Done:  E(UMN12SX) =  -3033.64422703     A.U. after   16 cycles
 SCF Done:  E(UB1B95) =  -3034.37574875     A.U. after   16 cycles
 Normal termination of Gaussian 16 at Tue Feb 11 22:41:06 2020.
 SCF Done:  E(UB3PW91) =  -3033.97154758     A.U. after   15 cycles
 Normal termination of Gaussian 16 at Tue Feb 11 22:57:16 2020.
 SCF Done:  E(UM06L) =  -3034.18712534     A.U. after   17 cycles
 Normal termination of Gaussian 16 at Tue Feb 11 23:15:44 2020.
 Gaussian 16:  ES64L-G16RevA.03 25-Dec-2016

                         Standard orientation:
 ---------------------------------------------------------------------
 Center     Atomic      Atomic             Coordinates (Angstroms)
 Number     Number       Type             X           Y           Z
 ---------------------------------------------------------------------
      1          8           0       -0.345591   -0.075881   -0.402520
      2          6           0       -1.271255   -1.062265   -0.258969
      3          6           0       -2.499987   -0.459708    0.662794
      4          6           0       -2.894009    0.737535   -0.036586
      5          6           0       -3.996037    0.711334   -1.030464
      6         26           0        1.475977    0.172195   -0.078952
      7         17           0        1.737768    2.256465   -0.764191
      8          6           0       -2.112911    1.943010    0.101659
      9         17           0        2.542345   -1.377412   -1.221738
     10         17           0        1.780098   -0.010802    2.110642
     11          1           0       -3.284596   -1.219077    0.596811
     12          1           0       -2.486496    2.810107   -0.442636
     13          1           0       -1.814926    2.183408    1.124929
     14          1           0       -1.142141    1.569336   -0.351876
     15          1           0       -4.836539    1.272303   -0.590805
     16          1           0       -3.721636    1.249312   -1.945582
     17          1           0       -4.342950   -0.294988   -1.267101
     18          6           0       -2.031795   -0.244936    2.111272
     19          1           0       -2.732419    0.402348    2.648193
     20          1           0       -1.995798   -1.200717    2.636213
     21          1           0       -1.034614    0.198194    2.152408
     22          6           0       -0.726913   -2.280673    0.511095
     23          1           0       -1.517140   -3.008866    0.719797
     24          1           0        0.028687   -2.752307   -0.124714
     25          1           0       -0.241270   -1.986811    1.441687
     26          6           0       -1.779302   -1.507791   -1.639107
     27          1           0       -0.950210   -2.002720   -2.152356
     28          1           0       -2.613922   -2.213976   -1.567557
     29          1           0       -2.075045   -0.654883   -2.254787
 ---------------------------------------------------------------------

 SCF Done:  E(UB97D3) =  -3034.60741811     A.U. after   16 cycles
 Normal termination of Gaussian 16 at Tue Feb 11 23:28:22 2020.
