 Gaussian 16, Revision A.03,

 --------------------------------
 #t pop=none jul-cc-pvdz upbe1pbe
 --------------------------------
 ------------------------
 theory_abbreviation pbe0
 ------------------------
 Symbolic Z-matrix:
 Charge =  0 Multiplicity = 6

 SCF Done:  E(UPBE1PBE) =  -3033.12183918     A.U. after   20 cycles
 Normal termination of Gaussian 16 at Tue Feb 11 13:58:41 2020.

 ---------------------------------------------------------------------
 #t pop=none jul-cc-pvdz guess=read upbe1pbe empiricaldispersion=gd3bj
 ---------------------------------------------------------------------
 -----------------------------
 theory_abbreviation pbe0_d3bj
 -----------------------------
 Symbolic Z-matrix:
 Charge =  0 Multiplicity = 6

 SCF Done:  E(UPBE1PBE) =  -3033.15921292     A.U. after    1 cycles
 Normal termination of Gaussian 16 at Tue Feb 11 13:59:54 2020.

 -----------------------------------------
 #t pop=none jul-cc-pvdz guess=read ub3lyp
 -----------------------------------------
 -------------------------
 theory_abbreviation b3lyp
 -------------------------
 Symbolic Z-matrix:
 Charge =  0 Multiplicity = 6

 SCF Done:  E(UB3LYP) =  -3034.33774599     A.U. after   13 cycles
 Normal termination of Gaussian 16 at Tue Feb 11 14:13:47 2020.

 -------------------------------------------------------------------
 #t pop=none jul-cc-pvdz guess=read ub3lyp empiricaldispersion=gd3bj
 -------------------------------------------------------------------
 ------------------------------
 theory_abbreviation b3lyp_d3bj
 ------------------------------
 Symbolic Z-matrix:
 Charge =  0 Multiplicity = 6

 SCF Done:  E(UB3LYP) =  -3034.40731988     A.U. after    1 cycles
 Normal termination of Gaussian 16 at Tue Feb 11 14:14:58 2020.

 ----------------------------------------
 #t pop=none jul-cc-pvdz guess=read ub97d
 ----------------------------------------
 ------------------------
 theory_abbreviation b97d
 ------------------------
 Symbolic Z-matrix:
 Charge =  0 Multiplicity = 6

 SCF Done:  E(UB97D) =  -3034.59149534     A.U. after   15 cycles

 ----------------------------------------------------------------
 #t pop=none jul-cc-pvdz guess=read ub97d empiricaldispersion=gd3
 ----------------------------------------------------------------
 -------------------------
 theory_abbreviation b97d3
 -------------------------
 Symbolic Z-matrix:
 Charge =  0 Multiplicity = 6

 SCF Done:  E(UB97D) =  -3034.59256227     A.U. after    1 cycles
 SCF Done:  E(UBHandHLYP) =  -3033.97816533     A.U. after   18 cycles
 SCF Done:  E(UBHandH) =  -3026.32083329     A.U. after   16 cycles
 SCF Done:  E(ULC-wPBE) =  -3033.46130218     A.U. after   19 cycles
 SCF Done:  E(UB-P86) =  -3034.64253863     A.U. after   17 cycles
 SCF Done:  E(UmPW1LYP) =  -3034.05579011     A.U. after   15 cycles
 SCF Done:  E(UmPW1PBE) =  -3033.89626355     A.U. after   15 cycles
 SCF Done:  E(UmPW3PBE) =  -3033.66920403     A.U. after   13 cycles
 SCF Done:  E(UM11) =  -3033.81920125     A.U. after   19 cycles
 SCF Done:  E(UN12SX) =  -3033.26093176     A.U. after   17 cycles
 SCF Done:  E(UMN12SX) =  -3033.66085910     A.U. after   16 cycles
 SCF Done:  E(UB1B95) =  -3034.39121758     A.U. after   14 cycles
 Normal termination of Gaussian 16 at Tue Feb 11 23:05:23 2020.
 SCF Done:  E(UB3PW91) =  -3033.98494386     A.U. after   15 cycles
 Normal termination of Gaussian 16 at Tue Feb 11 23:21:04 2020.
 SCF Done:  E(UM06L) =  -3034.20540218     A.U. after   18 cycles
 Normal termination of Gaussian 16 at Tue Feb 11 23:40:55 2020.
 Gaussian 16:  ES64L-G16RevA.03 25-Dec-2016

                         Standard orientation:
 ---------------------------------------------------------------------
 Center     Atomic      Atomic             Coordinates (Angstroms)
 Number     Number       Type             X           Y           Z
 ---------------------------------------------------------------------
      1          8           0       -0.262694   -0.255710   -0.789337
      2          6           0       -1.134975   -1.173240   -0.618983
      3          6           0       -2.829597   -0.277811    0.559563
      4          6           0       -2.645226    0.916479   -0.073793
      5          6           0       -3.301621    1.226787   -1.384841
      6         26           0        1.458583    0.147515   -0.019051
      7         17           0        2.010844    2.054596   -0.931676
      8          6           0       -1.737050    1.981955    0.442966
      9         17           0        2.678896   -1.579504   -0.592273
     10         17           0        1.186383    0.289389    2.165231
     11          1           0       -3.574131   -0.945817    0.129448
     12          1           0       -2.263933    2.943654    0.476629
     13          1           0       -1.321714    1.770569    1.427246
     14          1           0       -0.901542    2.113472   -0.259164
     15          1           0       -3.904443    2.138061   -1.279955
     16          1           0       -2.548318    1.443730   -2.153953
     17          1           0       -3.956612    0.425058   -1.732765
     18          6           0       -2.533561   -0.504379    2.025735
     19          1           0       -3.266935    0.042445    2.631769
     20          1           0       -2.624412   -1.560025    2.290354
     21          1           0       -1.539599   -0.164773    2.323533
     22          6           0       -0.845901   -2.267798    0.377623
     23          1           0       -1.713392   -2.901306    0.568629
     24          1           0       -0.062957   -2.880788   -0.091195
     25          1           0       -0.438507   -1.881843    1.311311
     26          6           0       -1.887522   -1.595652   -1.859298
     27          1           0       -1.208765   -2.269844   -2.399198
     28          1           0       -2.802778   -2.146252   -1.635502
     29          1           0       -2.094944   -0.750261   -2.512781
 ---------------------------------------------------------------------

 SCF Done:  E(UB97D3) =  -3034.62784684     A.U. after   15 cycles
 Normal termination of Gaussian 16 at Tue Feb 11 23:52:55 2020.
