 Gaussian 16, Revision A.03,

 --------------------------------
 #t pop=none jul-cc-pvdz upbe1pbe
 --------------------------------
 ------------------------
 theory_abbreviation pbe0
 ------------------------
 Symbolic Z-matrix:
 Charge =  0 Multiplicity = 6

 SCF Done:  E(UPBE1PBE) =  -3033.12325629     A.U. after   20 cycles
 Normal termination of Gaussian 16 at Tue Feb 11 13:59:01 2020.

 ---------------------------------------------------------------------
 #t pop=none jul-cc-pvdz guess=read upbe1pbe empiricaldispersion=gd3bj
 ---------------------------------------------------------------------
 -----------------------------
 theory_abbreviation pbe0_d3bj
 -----------------------------
 Symbolic Z-matrix:
 Charge =  0 Multiplicity = 6

 SCF Done:  E(UPBE1PBE) =  -3033.16064559     A.U. after    1 cycles
 Normal termination of Gaussian 16 at Tue Feb 11 14:00:12 2020.

 -----------------------------------------
 #t pop=none jul-cc-pvdz guess=read ub3lyp
 -----------------------------------------
 -------------------------
 theory_abbreviation b3lyp
 -------------------------
 Symbolic Z-matrix:
 Charge =  0 Multiplicity = 6

 SCF Done:  E(UB3LYP) =  -3034.33966731     A.U. after   13 cycles
 Normal termination of Gaussian 16 at Tue Feb 11 14:14:06 2020.

 -------------------------------------------------------------------
 #t pop=none jul-cc-pvdz guess=read ub3lyp empiricaldispersion=gd3bj
 -------------------------------------------------------------------
 ------------------------------
 theory_abbreviation b3lyp_d3bj
 ------------------------------
 Symbolic Z-matrix:
 Charge =  0 Multiplicity = 6

 SCF Done:  E(UB3LYP) =  -3034.40918419     A.U. after    1 cycles
 Normal termination of Gaussian 16 at Tue Feb 11 14:15:17 2020.

 ----------------------------------------
 #t pop=none jul-cc-pvdz guess=read ub97d
 ----------------------------------------
 ------------------------
 theory_abbreviation b97d
 ------------------------
 Symbolic Z-matrix:
 Charge =  0 Multiplicity = 6

 SCF Done:  E(UB97D) =  -3034.59194000     A.U. after   15 cycles

 ----------------------------------------------------------------
 #t pop=none jul-cc-pvdz guess=read ub97d empiricaldispersion=gd3
 ----------------------------------------------------------------
 -------------------------
 theory_abbreviation b97d3
 -------------------------
 Symbolic Z-matrix:
 Charge =  0 Multiplicity = 6

 SCF Done:  E(UB97D) =  -3034.59383207     A.U. after    1 cycles
 SCF Done:  E(UBHandHLYP) =  -3033.98146596     A.U. after   15 cycles
 SCF Done:  E(UBHandH) =  -3026.32271125     A.U. after   14 cycles
 SCF Done:  E(ULC-wPBE) =  -3033.46443806     A.U. after   18 cycles
 SCF Done:  E(UB-P86) =  -3034.64314268     A.U. after   16 cycles
 SCF Done:  E(UmPW1LYP) =  -3034.05790475     A.U. after   13 cycles
 SCF Done:  E(UmPW1PBE) =  -3033.89773841     A.U. after   14 cycles
 SCF Done:  E(UmPW3PBE) =  -3033.67055904     A.U. after   13 cycles
 SCF Done:  E(UM11) =  -3033.82153974     A.U. after   16 cycles
 SCF Done:  E(UN12SX) =  -3033.26204966     A.U. after   17 cycles
 SCF Done:  E(UMN12SX) =  -3033.66378973     A.U. after   16 cycles
 SCF Done:  E(UB1B95) =  -3034.39377901     A.U. after   14 cycles
 Normal termination of Gaussian 16 at Tue Feb 11 22:30:14 2020.
 SCF Done:  E(UB3PW91) =  -3033.98643283     A.U. after   15 cycles
 Normal termination of Gaussian 16 at Tue Feb 11 22:45:58 2020.
 SCF Done:  E(UM06L) =  -3034.20881788     A.U. after   17 cycles
 Normal termination of Gaussian 16 at Tue Feb 11 23:06:23 2020.
 Gaussian 16:  ES64L-G16RevA.03 25-Dec-2016

                         Standard orientation:
 ---------------------------------------------------------------------
 Center     Atomic      Atomic             Coordinates (Angstroms)
 Number     Number       Type             X           Y           Z
 ---------------------------------------------------------------------
      1          8           0       -0.295370   -0.199798   -0.713748
      2          6           0       -1.120407   -1.150563   -0.604494
      3          6           0       -3.193332    0.007757    0.177340
      4          6           0       -2.407376    1.038989   -0.208974
      5          6           0       -2.434715    1.565190   -1.614368
      6         26           0        1.469973    0.095836    0.052739
      7         17           0        2.103808    1.987692   -0.826875
      8          6           0       -1.563799    1.837662    0.740506
      9         17           0        2.518071   -1.701885   -0.641398
     10         17           0        1.302275    0.137015    2.243020
     11          1           0       -3.845307   -0.431342   -0.576485
     12          1           0       -2.138394    2.715111    1.068936
     13          1           0       -1.262695    1.287269    1.632384
     14          1           0       -0.665069    2.218005    0.246150
     15          1           0       -2.721667    2.624579   -1.596654
     16          1           0       -1.435408    1.519655   -2.062750
     17          1           0       -3.148760    1.035118   -2.250574
     18          6           0       -3.472046   -0.418892    1.592759
     19          1           0       -4.383657    0.075530    1.955304
     20          1           0       -3.650912   -1.496572    1.666100
     21          1           0       -2.667107   -0.158999    2.284591
     22          6           0       -1.052682   -2.067964    0.577263
     23          1           0       -1.945469   -2.684974    0.678233
     24          1           0       -0.193913   -2.730105    0.388088
     25          1           0       -0.844111   -1.526627    1.500363
     26          6           0       -1.760589   -1.661636   -1.862151
     27          1           0       -1.025818   -2.351837   -2.303044
     28          1           0       -2.678349   -2.218769   -1.669566
     29          1           0       -1.930661   -0.860618   -2.580297
 ---------------------------------------------------------------------

 SCF Done:  E(UB97D3) =  -3034.62905424     A.U. after   17 cycles
 Normal termination of Gaussian 16 at Tue Feb 11 23:20:05 2020.
