 Gaussian 16, Revision A.03,

 --------------------------------
 #t pop=none jul-cc-pvdz upbe1pbe
 --------------------------------
 ------------------------
 theory_abbreviation pbe0
 ------------------------
 Symbolic Z-matrix:
 Charge =  0 Multiplicity = 6

 SCF Done:  E(UPBE1PBE) =  -3033.12259619     A.U. after   21 cycles
 Normal termination of Gaussian 16 at Tue Feb 11 14:48:09 2020.

 ---------------------------------------------------------------------
 #t pop=none jul-cc-pvdz guess=read upbe1pbe empiricaldispersion=gd3bj
 ---------------------------------------------------------------------
 -----------------------------
 theory_abbreviation pbe0_d3bj
 -----------------------------
 Symbolic Z-matrix:
 Charge =  0 Multiplicity = 6

 SCF Done:  E(UPBE1PBE) =  -3033.16010840     A.U. after    1 cycles
 Normal termination of Gaussian 16 at Tue Feb 11 14:49:21 2020.

 -----------------------------------------
 #t pop=none jul-cc-pvdz guess=read ub3lyp
 -----------------------------------------
 -------------------------
 theory_abbreviation b3lyp
 -------------------------
 Symbolic Z-matrix:
 Charge =  0 Multiplicity = 6

 SCF Done:  E(UB3LYP) =  -3034.33867729     A.U. after   13 cycles
 Normal termination of Gaussian 16 at Tue Feb 11 15:03:18 2020.

 -------------------------------------------------------------------
 #t pop=none jul-cc-pvdz guess=read ub3lyp empiricaldispersion=gd3bj
 -------------------------------------------------------------------
 ------------------------------
 theory_abbreviation b3lyp_d3bj
 ------------------------------
 Symbolic Z-matrix:
 Charge =  0 Multiplicity = 6

 SCF Done:  E(UB3LYP) =  -3034.40847199     A.U. after    1 cycles
 Normal termination of Gaussian 16 at Tue Feb 11 15:04:29 2020.

 ----------------------------------------
 #t pop=none jul-cc-pvdz guess=read ub97d
 ----------------------------------------
 ------------------------
 theory_abbreviation b97d
 ------------------------
 Symbolic Z-matrix:
 Charge =  0 Multiplicity = 6

 SCF Done:  E(UB97D) =  -3034.59173983     A.U. after   15 cycles

 ----------------------------------------------------------------
 #t pop=none jul-cc-pvdz guess=read ub97d empiricaldispersion=gd3
 ----------------------------------------------------------------
 -------------------------
 theory_abbreviation b97d3
 -------------------------
 Symbolic Z-matrix:
 Charge =  0 Multiplicity = 6

 SCF Done:  E(UB97D) =  -3034.59319291     A.U. after    1 cycles
 SCF Done:  E(UBHandHLYP) =  -3033.98015418     A.U. after   18 cycles
 SCF Done:  E(UBHandH) =  -3026.32229554     A.U. after   14 cycles
 SCF Done:  E(ULC-wPBE) =  -3033.46330852     A.U. after   19 cycles
 SCF Done:  E(UB-P86) =  -3034.64286156     A.U. after   16 cycles
 SCF Done:  E(UmPW1LYP) =  -3034.05687711     A.U. after   13 cycles
 SCF Done:  E(UmPW1PBE) =  -3033.89703600     A.U. after   13 cycles
 SCF Done:  E(UmPW3PBE) =  -3033.66986861     A.U. after   13 cycles
 SCF Done:  E(UM11) =  -3033.82045031     A.U. after   16 cycles
 SCF Done:  E(UN12SX) =  -3033.26150189     A.U. after   17 cycles
 SCF Done:  E(UMN12SX) =  -3033.66258105     A.U. after   16 cycles
 SCF Done:  E(UB1B95) =  -3034.39268030     A.U. after   14 cycles
 Normal termination of Gaussian 16 at Tue Feb 11 23:16:58 2020.
 SCF Done:  E(UB3PW91) =  -3033.98566378     A.U. after   13 cycles
 Normal termination of Gaussian 16 at Tue Feb 11 23:30:11 2020.
 SCF Done:  E(UM06L) =  -3034.20758530     A.U. after   17 cycles
 Normal termination of Gaussian 16 at Tue Feb 11 23:48:43 2020.
 Gaussian 16:  ES64L-G16RevA.03 25-Dec-2016

                         Standard orientation:
 ---------------------------------------------------------------------
 Center     Atomic      Atomic             Coordinates (Angstroms)
 Number     Number       Type             X           Y           Z
 ---------------------------------------------------------------------
      1          8           0       -0.287767   -0.203968   -0.758029
      2          6           0       -1.136038   -1.139584   -0.631467
      3          6           0       -3.083183   -0.078449    0.286478
      4          6           0       -2.446948    1.023759   -0.180828
      5          6           0       -2.627936    1.506557   -1.588857
      6         26           0        1.455759    0.104080    0.037471
      7         17           0        2.095467    2.006698   -0.818447
      8          6           0       -1.576491    1.899408    0.666358
      9         17           0        2.558202   -1.672532   -0.624378
     10         17           0        1.226504    0.149518    2.226851
     11          1           0       -3.775391   -0.576422   -0.390281
     12          1           0       -2.151676    2.790044    0.956641
     13          1           0       -1.220517    1.419760    1.577618
     14          1           0       -0.711758    2.257549    0.098228
     15          1           0       -2.956844    2.553369   -1.573516
     16          1           0       -1.668641    1.490049   -2.121297
     17          1           0       -3.368861    0.927329   -2.145624
     18          6           0       -3.212351   -0.465916    1.736589
     19          1           0       -4.085859    0.036075    2.173939
     20          1           0       -3.373963   -1.541016    1.856485
     21          1           0       -2.342939   -0.183671    2.335183
     22          6           0       -0.995734   -2.121631    0.494378
     23          1           0       -1.876618   -2.753480    0.609283
     24          1           0       -0.144131   -2.761139    0.217107
     25          1           0       -0.739661   -1.634937    1.435251
     26          6           0       -1.805362   -1.626102   -1.888044
     27          1           0       -1.075918   -2.299392   -2.361365
     28          1           0       -2.713682   -2.196044   -1.688018
     29          1           0       -1.999833   -0.813294   -2.585731
 ---------------------------------------------------------------------

 SCF Done:  E(UB97D3) =  -3034.62850038     A.U. after   17 cycles
 Normal termination of Gaussian 16 at Wed Feb 12 00:02:43 2020.
