 Gaussian 16, Revision A.03,

 --------------------------------
 #t pop=none jul-cc-pvdz upbe1pbe
 --------------------------------
 ------------------------
 theory_abbreviation pbe0
 ------------------------
 Symbolic Z-matrix:
 Charge =  0 Multiplicity = 6

 SCF Done:  E(UPBE1PBE) =  -3033.12766078     A.U. after   19 cycles
 Normal termination of Gaussian 16 at Tue Feb 11 13:53:07 2020.

 ---------------------------------------------------------------------
 #t pop=none jul-cc-pvdz guess=read upbe1pbe empiricaldispersion=gd3bj
 ---------------------------------------------------------------------
 -----------------------------
 theory_abbreviation pbe0_d3bj
 -----------------------------
 Symbolic Z-matrix:
 Charge =  0 Multiplicity = 6

 SCF Done:  E(UPBE1PBE) =  -3033.16469437     A.U. after    1 cycles
 Normal termination of Gaussian 16 at Tue Feb 11 13:54:15 2020.

 -----------------------------------------
 #t pop=none jul-cc-pvdz guess=read ub3lyp
 -----------------------------------------
 -------------------------
 theory_abbreviation b3lyp
 -------------------------
 Symbolic Z-matrix:
 Charge =  0 Multiplicity = 6

 SCF Done:  E(UB3LYP) =  -3034.33952169     A.U. after   13 cycles
 Normal termination of Gaussian 16 at Tue Feb 11 14:07:11 2020.

 -------------------------------------------------------------------
 #t pop=none jul-cc-pvdz guess=read ub3lyp empiricaldispersion=gd3bj
 -------------------------------------------------------------------
 ------------------------------
 theory_abbreviation b3lyp_d3bj
 ------------------------------
 Symbolic Z-matrix:
 Charge =  0 Multiplicity = 6

 SCF Done:  E(UB3LYP) =  -3034.40847946     A.U. after    1 cycles
 Normal termination of Gaussian 16 at Tue Feb 11 14:08:18 2020.

 ----------------------------------------
 #t pop=none jul-cc-pvdz guess=read ub97d
 ----------------------------------------
 ------------------------
 theory_abbreviation b97d
 ------------------------
 Symbolic Z-matrix:
 Charge =  0 Multiplicity = 6

 SCF Done:  E(UB97D) =  -3034.58907019     A.U. after   16 cycles

 ----------------------------------------------------------------
 #t pop=none jul-cc-pvdz guess=read ub97d empiricaldispersion=gd3
 ----------------------------------------------------------------
 -------------------------
 theory_abbreviation b97d3
 -------------------------
 Symbolic Z-matrix:
 Charge =  0 Multiplicity = 6

 SCF Done:  E(UB97D) =  -3034.58984944     A.U. after    1 cycles
 SCF Done:  E(UBHandHLYP) =  -3033.98306641     A.U. after   16 cycles
 SCF Done:  E(UBHandH) =  -3026.33000947     A.U. after   14 cycles
 SCF Done:  E(ULC-wPBE) =  -3033.47457746     A.U. after   17 cycles
 SCF Done:  E(UB-P86) =  -3034.64578500     A.U. after   16 cycles
 SCF Done:  E(UmPW1LYP) =  -3034.05785806     A.U. after   14 cycles
 SCF Done:  E(UmPW1PBE) =  -3033.90208653     A.U. after   14 cycles
 SCF Done:  E(UmPW3PBE) =  -3033.67405610     A.U. after   14 cycles
 SCF Done:  E(UM11) =  -3033.82249524     A.U. after   16 cycles
 SCF Done:  E(UN12SX) =  -3033.26802130     A.U. after   16 cycles
 SCF Done:  E(UMN12SX) =  -3033.66258695     A.U. after   16 cycles
 SCF Done:  E(UB1B95) =  -3034.39378905     A.U. after   14 cycles
 Normal termination of Gaussian 16 at Tue Feb 11 21:55:08 2020.
 SCF Done:  E(UB3PW91) =  -3033.98938393     A.U. after   14 cycles
 Normal termination of Gaussian 16 at Tue Feb 11 22:08:59 2020.
 SCF Done:  E(UM06L) =  -3034.20386620     A.U. after   17 cycles
 Normal termination of Gaussian 16 at Tue Feb 11 22:27:14 2020.
 Gaussian 16:  ES64L-G16RevA.03 25-Dec-2016

                         Standard orientation:
 ---------------------------------------------------------------------
 Center     Atomic      Atomic             Coordinates (Angstroms)
 Number     Number       Type             X           Y           Z
 ---------------------------------------------------------------------
      1          8           0       -0.423123   -0.169642   -0.528770
      2          6           0       -1.484958   -1.159998   -0.321153
      3          6           0       -2.715942   -0.138996   -0.273873
      4          6           0       -1.897256    1.153310   -0.251803
      5          6           0       -1.815216    1.976042   -1.485827
      6         26           0        1.377657    0.026701    0.024059
      7         17           0        1.875389    1.985655   -0.865099
      8          6           0       -1.565552    1.816150    1.036124
      9         17           0        2.419146   -1.738342   -0.747965
     10         17           0        1.400031    0.147685    2.229689
     11          1           0       -3.239537   -0.191583   -1.233925
     12          1           0       -2.438835    2.424604    1.319410
     13          1           0       -1.369594    1.109053    1.841819
     14          1           0       -0.709428    2.485682    0.925015
     15          1           0       -2.644172    2.701354   -1.453903
     16          1           0       -0.875604    2.534088   -1.520249
     17          1           0       -1.922504    1.370102   -2.386773
     18          6           0       -3.734752   -0.306422    0.850590
     19          1           0       -4.506659    0.469439    0.797742
     20          1           0       -4.235596   -1.274566    0.752895
     21          1           0       -3.277472   -0.265537    1.841907
     22          6           0       -1.247084   -1.939105    0.963243
     23          1           0       -2.065519   -2.643493    1.144328
     24          1           0       -0.320270   -2.514294    0.868243
     25          1           0       -1.141921   -1.285381    1.831153
     26          6           0       -1.524342   -2.076229   -1.533470
     27          1           0       -0.582097   -2.628250   -1.607757
     28          1           0       -2.347214   -2.795526   -1.448851
     29          1           0       -1.654681   -1.496262   -2.452060
 ---------------------------------------------------------------------

 SCF Done:  E(UB97D3) =  -3034.62540277     A.U. after   16 cycles
 Normal termination of Gaussian 16 at Tue Feb 11 22:39:44 2020.
