 Gaussian 16, Revision A.03,

 --------------------------------
 #t pop=none jul-cc-pvdz upbe1pbe
 --------------------------------
 ------------------------
 theory_abbreviation pbe0
 ------------------------
 Symbolic Z-matrix:
 Charge =  0 Multiplicity = 6

 SCF Done:  E(UPBE1PBE) =  -3033.13638403     A.U. after   20 cycles
 Normal termination of Gaussian 16 at Wed Feb 12 14:10:50 2020.

 ---------------------------------------------------------------------
 #t pop=none jul-cc-pvdz guess=read upbe1pbe empiricaldispersion=gd3bj
 ---------------------------------------------------------------------
 -----------------------------
 theory_abbreviation pbe0_d3bj
 -----------------------------
 Symbolic Z-matrix:
 Charge =  0 Multiplicity = 6

 SCF Done:  E(UPBE1PBE) =  -3033.17266467     A.U. after    1 cycles
 Normal termination of Gaussian 16 at Wed Feb 12 14:11:56 2020.

 -----------------------------------------
 #t pop=none jul-cc-pvdz guess=read ub3lyp
 -----------------------------------------
 -------------------------
 theory_abbreviation b3lyp
 -------------------------
 Symbolic Z-matrix:
 Charge =  0 Multiplicity = 6

 SCF Done:  E(UB3LYP) =  -3034.35481309     A.U. after   13 cycles
 Normal termination of Gaussian 16 at Wed Feb 12 14:24:41 2020.

 -------------------------------------------------------------------
 #t pop=none jul-cc-pvdz guess=read ub3lyp empiricaldispersion=gd3bj
 -------------------------------------------------------------------
 ------------------------------
 theory_abbreviation b3lyp_d3bj
 ------------------------------
 Symbolic Z-matrix:
 Charge =  0 Multiplicity = 6

 SCF Done:  E(UB3LYP) =  -3034.42194312     A.U. after    1 cycles
 Normal termination of Gaussian 16 at Wed Feb 12 14:25:46 2020.

 ----------------------------------------
 #t pop=none jul-cc-pvdz guess=read ub97d
 ----------------------------------------
 ------------------------
 theory_abbreviation b97d
 ------------------------
 Symbolic Z-matrix:
 Charge =  0 Multiplicity = 6

 SCF Done:  E(UB97D) =  -3034.60441363     A.U. after   16 cycles

 ----------------------------------------------------------------
 #t pop=none jul-cc-pvdz guess=read ub97d empiricaldispersion=gd3
 ----------------------------------------------------------------
 -------------------------
 theory_abbreviation b97d3
 -------------------------
 Symbolic Z-matrix:
 Charge =  0 Multiplicity = 6

 SCF Done:  E(UB97D) =  -3034.60655928     A.U. after    3 cycles
 SCF Done:  E(UBHandHLYP) =  -3033.99698709     A.U. after   18 cycles
 SCF Done:  E(UBHandH) =  -3026.33260845     A.U. after   14 cycles
 SCF Done:  E(ULC-wPBE) =  -3033.47827330     A.U. after   17 cycles
 SCF Done:  E(UB-P86) =  -3034.65376627     A.U. after   17 cycles
 SCF Done:  E(UmPW1LYP) =  -3034.07320263     A.U. after   13 cycles
 SCF Done:  E(UmPW1PBE) =  -3033.91087125     A.U. after   14 cycles
 SCF Done:  E(UmPW3PBE) =  -3033.68379347     A.U. after   13 cycles
 SCF Done:  E(UM11) =  -3033.83579160     A.U. after   17 cycles
 SCF Done:  E(UN12SX) =  -3033.27529162     A.U. after   17 cycles
 SCF Done:  E(UMN12SX) =  -3033.67804802     A.U. after   16 cycles
 SCF Done:  E(UB1B95) =  -3034.40740713     A.U. after   14 cycles
 Normal termination of Gaussian 16 at Wed Feb 12 21:54:34 2020.
 SCF Done:  E(UB3PW91) =  -3034.00007084     A.U. after   15 cycles
 Normal termination of Gaussian 16 at Wed Feb 12 22:09:09 2020.
 SCF Done:  E(UM06L) =  -3034.22233610     A.U. after   17 cycles
 Normal termination of Gaussian 16 at Wed Feb 12 22:27:21 2020.
 Gaussian 16:  ES64L-G16RevA.03 25-Dec-2016

                         Standard orientation:
 ---------------------------------------------------------------------
 Center     Atomic      Atomic             Coordinates (Angstroms)
 Number     Number       Type             X           Y           Z
 ---------------------------------------------------------------------
      1          8           0        0.237686    0.399938   -0.819913
      2          6           0        0.944139    1.409177   -0.613958
      3          6           0        3.218010   -0.040845    0.452319
      4          6           0        2.567596   -0.959821   -0.285938
      5          6           0        2.861056   -1.135160   -1.752680
      6         26           0       -1.465246   -0.162350    0.037579
      7         17           0       -2.087702   -1.931685   -1.057492
      8          6           0        1.620988   -1.982419    0.276035
      9         17           0       -2.665130    1.633295   -0.326994
     10         17           0       -1.108977   -0.473714    2.176943
     11          1           0        3.951697    0.583963   -0.059471
     12          1           0        2.120174   -2.960915    0.305562
     13          1           0        1.273723   -1.755886    1.283998
     14          1           0        0.747131   -2.109348   -0.372456
     15          1           0        3.264554   -2.139370   -1.938283
     16          1           0        1.941622   -1.058168   -2.346809
     17          1           0        3.589696   -0.407727   -2.123265
     18          6           0        3.136977    0.154750    1.940878
     19          1           0        4.000635   -0.307277    2.438804
     20          1           0        3.159567    1.218444    2.205716
     21          1           0        2.235063   -0.281316    2.378254
     22          6           0        0.832935    2.193491    0.653551
     23          1           0        1.707871    2.823795    0.819397
     24          1           0       -0.050796    2.840471    0.549554
     25          1           0        0.658136    1.540142    1.509566
     26          6           0        1.737236    1.979273   -1.746516
     27          1           0        1.191639    2.867930   -2.096563
     28          1           0        2.723853    2.310420   -1.415927
     29          1           0        1.817471    1.271543   -2.569770
 ---------------------------------------------------------------------

 SCF Done:  E(UB97D3) =  -3034.64089351     A.U. after   16 cycles
 Normal termination of Gaussian 16 at Wed Feb 12 22:39:40 2020.
