 Gaussian 16, Revision A.03,

 --------------------------------
 #t pop=none jul-cc-pvdz upbe1pbe
 --------------------------------
 ------------------------
 theory_abbreviation pbe0
 ------------------------
 Symbolic Z-matrix:
 Charge =  0 Multiplicity = 6

 SCF Done:  E(UPBE1PBE) =  -3033.12172494     A.U. after   21 cycles
 Normal termination of Gaussian 16 at Tue Feb 11 13:58:24 2020.

 ---------------------------------------------------------------------
 #t pop=none jul-cc-pvdz guess=read upbe1pbe empiricaldispersion=gd3bj
 ---------------------------------------------------------------------
 -----------------------------
 theory_abbreviation pbe0_d3bj
 -----------------------------
 Symbolic Z-matrix:
 Charge =  0 Multiplicity = 6

 SCF Done:  E(UPBE1PBE) =  -3033.15824155     A.U. after    1 cycles
 Normal termination of Gaussian 16 at Tue Feb 11 13:59:31 2020.

 -----------------------------------------
 #t pop=none jul-cc-pvdz guess=read ub3lyp
 -----------------------------------------
 -------------------------
 theory_abbreviation b3lyp
 -------------------------
 Symbolic Z-matrix:
 Charge =  0 Multiplicity = 6

 SCF Done:  E(UB3LYP) =  -3034.33802831     A.U. after   15 cycles
 Normal termination of Gaussian 16 at Tue Feb 11 14:14:36 2020.

 -------------------------------------------------------------------
 #t pop=none jul-cc-pvdz guess=read ub3lyp empiricaldispersion=gd3bj
 -------------------------------------------------------------------
 ------------------------------
 theory_abbreviation b3lyp_d3bj
 ------------------------------
 Symbolic Z-matrix:
 Charge =  0 Multiplicity = 6

 SCF Done:  E(UB3LYP) =  -3034.40605701     A.U. after    1 cycles
 Normal termination of Gaussian 16 at Tue Feb 11 14:15:43 2020.

 ----------------------------------------
 #t pop=none jul-cc-pvdz guess=read ub97d
 ----------------------------------------
 ------------------------
 theory_abbreviation b97d
 ------------------------
 Symbolic Z-matrix:
 Charge =  0 Multiplicity = 6

 SCF Done:  E(UB97D) =  -3034.59047800     A.U. after   16 cycles

 ----------------------------------------------------------------
 #t pop=none jul-cc-pvdz guess=read ub97d empiricaldispersion=gd3
 ----------------------------------------------------------------
 -------------------------
 theory_abbreviation b97d3
 -------------------------
 Symbolic Z-matrix:
 Charge =  0 Multiplicity = 6

 SCF Done:  E(UB97D) =  -3034.59185137     A.U. after    1 cycles
 SCF Done:  E(UBHandHLYP) =  -3033.97742847     A.U. after   18 cycles
 SCF Done:  E(UBHandH) =  -3026.31922493     A.U. after   16 cycles
 SCF Done:  E(ULC-wPBE) =  -3033.45967968     A.U. after   19 cycles
 SCF Done:  E(UB-P86) =  -3034.64166692     A.U. after   17 cycles
 SCF Done:  E(UmPW1LYP) =  -3034.05579160     A.U. after   16 cycles
 SCF Done:  E(UmPW1PBE) =  -3033.89636707     A.U. after   16 cycles
 SCF Done:  E(UmPW3PBE) =  -3033.66941880     A.U. after   13 cycles
 SCF Done:  E(UM11) =  -3033.81753331     A.U. after   19 cycles
 SCF Done:  E(UN12SX) =  -3033.26063509     A.U. after   17 cycles
 SCF Done:  E(UMN12SX) =  -3033.65882067     A.U. after   17 cycles
 SCF Done:  E(UB1B95) =  -3034.39044580     A.U. after   15 cycles
 Normal termination of Gaussian 16 at Tue Feb 11 22:47:19 2020.
 SCF Done:  E(UB3PW91) =  -3033.98529242     A.U. after   15 cycles
 Normal termination of Gaussian 16 at Tue Feb 11 23:04:18 2020.
 SCF Done:  E(UM06L) =  -3034.20317111     A.U. after   17 cycles
 Normal termination of Gaussian 16 at Tue Feb 11 23:22:43 2020.
 Gaussian 16:  ES64L-G16RevA.03 25-Dec-2016

                         Standard orientation:
 ---------------------------------------------------------------------
 Center     Atomic      Atomic             Coordinates (Angstroms)
 Number     Number       Type             X           Y           Z
 ---------------------------------------------------------------------
      1          8           0       -0.300281   -0.223671   -0.529797
      2          6           0       -1.118184   -1.180318   -0.302793
      3          6           0       -2.724207   -0.235972    0.867210
      4          6           0       -3.008106    0.711492   -0.079074
      5          6           0       -4.042598    0.491909   -1.138971
      6         26           0        1.529620    0.181433   -0.088710
      7         17           0        1.855007    2.112128   -1.059353
      8          6           0       -2.256107    1.998010   -0.134196
      9         17           0        2.589086   -1.539537   -0.942896
     10         17           0        1.736723    0.277525    2.099057
     11          1           0       -3.363576   -1.117691    0.881577
     12          1           0       -2.749320    2.737522   -0.770051
     13          1           0       -2.083299    2.428058    0.856317
     14          1           0       -1.261758    1.791295   -0.564174
     15          1           0       -4.860697    1.208755   -0.983237
     16          1           0       -3.643131    0.699278   -2.139857
     17          1           0       -4.466263   -0.514717   -1.119228
     18          6           0       -2.019236    0.109298    2.160386
     19          1           0       -2.592637    0.868127    2.706792
     20          1           0       -1.932315   -0.762694    2.811065
     21          1           0       -1.015156    0.509881    2.000311
     22          6           0       -0.753547   -2.198457    0.754821
     23          1           0       -1.601427   -2.818003    1.053298
     24          1           0       -0.000462   -2.845804    0.283418
     25          1           0       -0.286229   -1.739073    1.624683
     26          6           0       -1.846555   -1.726329   -1.507951
     27          1           0       -1.146743   -2.418481   -1.995172
     28          1           0       -2.745567   -2.285448   -1.240619
     29          1           0       -2.081928   -0.938668   -2.222596
 ---------------------------------------------------------------------

 SCF Done:  E(UB97D3) =  -3034.62709066     A.U. after   15 cycles
 Normal termination of Gaussian 16 at Tue Feb 11 23:34:29 2020.
