 Gaussian 16, Revision A.03,

 --------------------------------
 #t pop=none jul-cc-pvdz upbe1pbe
 --------------------------------
 ------------------------
 theory_abbreviation pbe0
 ------------------------
 Symbolic Z-matrix:
 Charge =  0 Multiplicity = 6

 SCF Done:  E(UPBE1PBE) =  -3033.13794257     A.U. after   20 cycles
 Normal termination of Gaussian 16 at Wed Feb 12 15:26:47 2020.

 ---------------------------------------------------------------------
 #t pop=none jul-cc-pvdz guess=read upbe1pbe empiricaldispersion=gd3bj
 ---------------------------------------------------------------------
 -----------------------------
 theory_abbreviation pbe0_d3bj
 -----------------------------
 Symbolic Z-matrix:
 Charge =  0 Multiplicity = 6

 SCF Done:  E(UPBE1PBE) =  -3033.17393921     A.U. after    1 cycles
 Normal termination of Gaussian 16 at Wed Feb 12 15:27:54 2020.

 -----------------------------------------
 #t pop=none jul-cc-pvdz guess=read ub3lyp
 -----------------------------------------
 -------------------------
 theory_abbreviation b3lyp
 -------------------------
 Symbolic Z-matrix:
 Charge =  0 Multiplicity = 6

 SCF Done:  E(UB3LYP) =  -3034.35669447     A.U. after   13 cycles
 Normal termination of Gaussian 16 at Wed Feb 12 15:40:51 2020.

 -------------------------------------------------------------------
 #t pop=none jul-cc-pvdz guess=read ub3lyp empiricaldispersion=gd3bj
 -------------------------------------------------------------------
 ------------------------------
 theory_abbreviation b3lyp_d3bj
 ------------------------------
 Symbolic Z-matrix:
 Charge =  0 Multiplicity = 6

 SCF Done:  E(UB3LYP) =  -3034.42322527     A.U. after    1 cycles
 Normal termination of Gaussian 16 at Wed Feb 12 15:41:58 2020.

 ----------------------------------------
 #t pop=none jul-cc-pvdz guess=read ub97d
 ----------------------------------------
 ------------------------
 theory_abbreviation b97d
 ------------------------
 Symbolic Z-matrix:
 Charge =  0 Multiplicity = 6

 SCF Done:  E(UB97D) =  -3034.60550787     A.U. after   17 cycles

 ----------------------------------------------------------------
 #t pop=none jul-cc-pvdz guess=read ub97d empiricaldispersion=gd3
 ----------------------------------------------------------------
 -------------------------
 theory_abbreviation b97d3
 -------------------------
 Symbolic Z-matrix:
 Charge =  0 Multiplicity = 6

 SCF Done:  E(UB97D) =  -3034.60776897     A.U. after    1 cycles
 SCF Done:  E(UBHandHLYP) =  -3033.99887991     A.U. after   18 cycles
 SCF Done:  E(UBHandH) =  -3026.33337633     A.U. after   14 cycles
 SCF Done:  E(ULC-wPBE) =  -3033.47981075     A.U. after   17 cycles
 SCF Done:  E(UB-P86) =  -3034.65470471     A.U. after   18 cycles
 SCF Done:  E(UmPW1LYP) =  -3034.07508660     A.U. after   13 cycles
 SCF Done:  E(UmPW1PBE) =  -3033.91245581     A.U. after   14 cycles
 SCF Done:  E(UmPW3PBE) =  -3033.68538671     A.U. after   13 cycles
 SCF Done:  E(UM11) =  -3033.83726907     A.U. after   17 cycles
 SCF Done:  E(UN12SX) =  -3033.27687427     A.U. after   17 cycles
 SCF Done:  E(UMN12SX) =  -3033.67957773     A.U. after   16 cycles
 SCF Done:  E(UB1B95) =  -3034.40905792     A.U. after   14 cycles
 Normal termination of Gaussian 16 at Wed Feb 12 23:17:51 2020.
 SCF Done:  E(UB3PW91) =  -3034.00174529     A.U. after   15 cycles
 Normal termination of Gaussian 16 at Wed Feb 12 23:32:42 2020.
 SCF Done:  E(UM06L) =  -3034.22360003     A.U. after   17 cycles
 Normal termination of Gaussian 16 at Wed Feb 12 23:51:06 2020.
 Gaussian 16:  ES64L-G16RevA.03 25-Dec-2016

                         Standard orientation:
 ---------------------------------------------------------------------
 Center     Atomic      Atomic             Coordinates (Angstroms)
 Number     Number       Type             X           Y           Z
 ---------------------------------------------------------------------
      1          8           0        0.221802    0.457967   -0.824953
      2          6           0        0.898593    1.479145   -0.590681
      3          6           0        3.230068   -0.066601    0.493243
      4          6           0        2.596166   -0.935744   -0.315090
      5          6           0        2.921141   -1.015135   -1.784356
      6         26           0       -1.462105   -0.178159    0.033339
      7         17           0       -2.070418   -1.911566   -1.123107
      8          6           0        1.640700   -1.995125    0.158325
      9         17           0       -2.702749    1.604626   -0.245966
     10         17           0       -1.066409   -0.561655    2.152615
     11          1           0        3.970917    0.592032    0.036326
     12          1           0        2.133926   -2.976077    0.113950
     13          1           0        1.287636   -1.846467    1.178699
     14          1           0        0.770479   -2.066497   -0.503566
     15          1           0        3.343797   -1.999439   -2.026061
     16          1           0        2.012954   -0.912948   -2.391828
     17          1           0        3.644994   -0.254775   -2.093690
     18          6           0        3.101498    0.054327    1.986124
     19          1           0        3.965614   -0.401309    2.489145
     20          1           0        3.080620    1.105382    2.299273
     21          1           0        2.201682   -0.428898    2.375379
     22          6           0        0.779014    2.216309    0.703884
     23          1           0        1.636808    2.867394    0.880147
     24          1           0       -0.126669    2.837081    0.638514
     25          1           0        0.639698    1.525578    1.537261
     26          6           0        1.709890    2.081917   -1.691970
     27          1           0        1.223412    3.026519   -1.974332
     28          1           0        2.716350    2.326764   -1.343748
     29          1           0        1.748472    1.425609   -2.559753
 ---------------------------------------------------------------------

 SCF Done:  E(UB97D3) =  -3034.64202028     A.U. after   16 cycles
 Normal termination of Gaussian 16 at Thu Feb 13 00:03:41 2020.
