 Gaussian 16, Revision A.03,

 --------------------------------
 #t pop=none jul-cc-pvdz upbe1pbe
 --------------------------------
 ------------------------
 theory_abbreviation pbe0
 ------------------------
 Symbolic Z-matrix:
 Charge =  0 Multiplicity = 6

 SCF Done:  E(UPBE1PBE) =  -3033.11231245     A.U. after   21 cycles
 Normal termination of Gaussian 16 at Tue Feb 11 13:58:18 2020.

 ---------------------------------------------------------------------
 #t pop=none jul-cc-pvdz guess=read upbe1pbe empiricaldispersion=gd3bj
 ---------------------------------------------------------------------
 -----------------------------
 theory_abbreviation pbe0_d3bj
 -----------------------------
 Symbolic Z-matrix:
 Charge =  0 Multiplicity = 6

 SCF Done:  E(UPBE1PBE) =  -3033.14845276     A.U. after    1 cycles
 Normal termination of Gaussian 16 at Tue Feb 11 13:59:27 2020.

 -----------------------------------------
 #t pop=none jul-cc-pvdz guess=read ub3lyp
 -----------------------------------------
 -------------------------
 theory_abbreviation b3lyp
 -------------------------
 Symbolic Z-matrix:
 Charge =  0 Multiplicity = 6

 SCF Done:  E(UB3LYP) =  -3034.32482071     A.U. after   15 cycles
 Normal termination of Gaussian 16 at Tue Feb 11 14:14:59 2020.

 -------------------------------------------------------------------
 #t pop=none jul-cc-pvdz guess=read ub3lyp empiricaldispersion=gd3bj
 -------------------------------------------------------------------
 ------------------------------
 theory_abbreviation b3lyp_d3bj
 ------------------------------
 Symbolic Z-matrix:
 Charge =  0 Multiplicity = 6

 SCF Done:  E(UB3LYP) =  -3034.39224954     A.U. after    1 cycles
 Normal termination of Gaussian 16 at Tue Feb 11 14:16:11 2020.

 ----------------------------------------
 #t pop=none jul-cc-pvdz guess=read ub97d
 ----------------------------------------
 ------------------------
 theory_abbreviation b97d
 ------------------------
 Symbolic Z-matrix:
 Charge =  0 Multiplicity = 6

 SCF Done:  E(UB97D) =  -3034.57690019     A.U. after   16 cycles

 ----------------------------------------------------------------
 #t pop=none jul-cc-pvdz guess=read ub97d empiricaldispersion=gd3
 ----------------------------------------------------------------
 -------------------------
 theory_abbreviation b97d3
 -------------------------
 Symbolic Z-matrix:
 Charge =  0 Multiplicity = 6

 SCF Done:  E(UB97D) =  -3034.57720678     A.U. after    1 cycles
 SCF Done:  E(UBHandHLYP) =  -3033.96573258     A.U. after   17 cycles
 SCF Done:  E(UBHandH) =  -3026.31410589     A.U. after   16 cycles
 SCF Done:  E(ULC-wPBE) =  -3033.45138042     A.U. after   18 cycles
 SCF Done:  E(UB-P86) =  -3034.63042161     A.U. after   17 cycles
 SCF Done:  E(UmPW1LYP) =  -3034.04257514     A.U. after   15 cycles
 SCF Done:  E(UmPW1PBE) =  -3033.88677830     A.U. after   15 cycles
 SCF Done:  E(UmPW3PBE) =  -3033.65929291     A.U. after   15 cycles
 SCF Done:  E(UM11) =  -3033.80704387     A.U. after   19 cycles
 SCF Done:  E(UN12SX) =  -3033.25197766     A.U. after   17 cycles
 SCF Done:  E(UMN12SX) =  -3033.64720769     A.U. after   16 cycles
 SCF Done:  E(UB1B95) =  -3034.37898033     A.U. after   16 cycles
 Normal termination of Gaussian 16 at Tue Feb 11 23:02:16 2020.
 SCF Done:  E(UB3PW91) =  -3033.97468717     A.U. after   15 cycles
 Normal termination of Gaussian 16 at Tue Feb 11 23:17:41 2020.
 SCF Done:  E(UM06L) =  -3034.19097148     A.U. after   16 cycles
 Normal termination of Gaussian 16 at Tue Feb 11 23:35:28 2020.
 Gaussian 16:  ES64L-G16RevA.03 25-Dec-2016

                         Standard orientation:
 ---------------------------------------------------------------------
 Center     Atomic      Atomic             Coordinates (Angstroms)
 Number     Number       Type             X           Y           Z
 ---------------------------------------------------------------------
      1          8           0       -0.335715   -0.106435   -0.426964
      2          6           0       -1.229314   -1.079091   -0.263088
      3          6           0       -2.562780   -0.394826    0.733731
      4          6           0       -2.931128    0.720978   -0.050444
      5          6           0       -3.999792    0.626060   -1.080260
      6         26           0        1.488970    0.173782   -0.084462
      7         17           0        1.780083    2.217292   -0.854094
      8          6           0       -2.175524    1.970764    0.039827
      9         17           0        2.540405   -1.435986   -1.153946
     10         17           0        1.780612    0.066229    2.107704
     11          1           0       -3.295918   -1.202517    0.691744
     12          1           0       -2.593711    2.786198   -0.552152
     13          1           0       -1.977169    2.286491    1.067741
     14          1           0       -1.173808    1.691383   -0.365083
     15          1           0       -4.831713    1.267575   -0.751392
     16          1           0       -3.663571    1.038605   -2.039537
     17          1           0       -4.379933   -0.386908   -1.218264
     18          6           0       -2.012506   -0.128213    2.134280
     19          1           0       -2.677785    0.550947    2.677922
     20          1           0       -1.953493   -1.057164    2.703100
     21          1           0       -1.013332    0.311578    2.104673
     22          6           0       -0.741278   -2.252534    0.595507
     23          1           0       -1.547923   -2.952528    0.831050
     24          1           0        0.014733   -2.775349   -0.001316
     25          1           0       -0.259507   -1.913847    1.512205
     26          6           0       -1.794369   -1.567380   -1.597267
     27          1           0       -0.996983   -2.127628   -2.096171
     28          1           0       -2.654934   -2.231802   -1.470554
     29          1           0       -2.060974   -0.734542   -2.250217
 ---------------------------------------------------------------------

 SCF Done:  E(UB97D3) =  -3034.61157253     A.U. after   16 cycles
 Normal termination of Gaussian 16 at Tue Feb 11 23:48:30 2020.
