 Gaussian 16, Revision A.03,

 --------------------------------
 #t pop=none jul-cc-pvdz upbe1pbe
 --------------------------------
 ------------------------
 theory_abbreviation pbe0
 ------------------------
 Symbolic Z-matrix:
 Charge =  0 Multiplicity = 6

 SCF Done:  E(UPBE1PBE) =  -3033.10283106     A.U. after   21 cycles
 Normal termination of Gaussian 16 at Tue Feb 11 13:59:45 2020.

 ---------------------------------------------------------------------
 #t pop=none jul-cc-pvdz guess=read upbe1pbe empiricaldispersion=gd3bj
 ---------------------------------------------------------------------
 -----------------------------
 theory_abbreviation pbe0_d3bj
 -----------------------------
 Symbolic Z-matrix:
 Charge =  0 Multiplicity = 6

 SCF Done:  E(UPBE1PBE) =  -3033.13990962     A.U. after    1 cycles
 Normal termination of Gaussian 16 at Tue Feb 11 14:00:59 2020.

 -----------------------------------------
 #t pop=none jul-cc-pvdz guess=read ub3lyp
 -----------------------------------------
 -------------------------
 theory_abbreviation b3lyp
 -------------------------
 Symbolic Z-matrix:
 Charge =  0 Multiplicity = 6

 SCF Done:  E(UB3LYP) =  -3034.31555060     A.U. after   14 cycles
 Normal termination of Gaussian 16 at Tue Feb 11 14:16:30 2020.

 -------------------------------------------------------------------
 #t pop=none jul-cc-pvdz guess=read ub3lyp empiricaldispersion=gd3bj
 -------------------------------------------------------------------
 ------------------------------
 theory_abbreviation b3lyp_d3bj
 ------------------------------
 Symbolic Z-matrix:
 Charge =  0 Multiplicity = 6

 SCF Done:  E(UB3LYP) =  -3034.38458156     A.U. after    1 cycles
 Normal termination of Gaussian 16 at Tue Feb 11 14:17:44 2020.

 ----------------------------------------
 #t pop=none jul-cc-pvdz guess=read ub97d
 ----------------------------------------
 ------------------------
 theory_abbreviation b97d
 ------------------------
 Symbolic Z-matrix:
 Charge =  0 Multiplicity = 6

 SCF Done:  E(UB97D) =  -3034.56615283     A.U. after   15 cycles

 ----------------------------------------------------------------
 #t pop=none jul-cc-pvdz guess=read ub97d empiricaldispersion=gd3
 ----------------------------------------------------------------
 -------------------------
 theory_abbreviation b97d3
 -------------------------
 Symbolic Z-matrix:
 Charge =  0 Multiplicity = 6

 SCF Done:  E(UB97D) =  -3034.56691459     A.U. after    1 cycles
 SCF Done:  E(UBHandHLYP) =  -3033.95987668     A.U. after   17 cycles
 SCF Done:  E(UBHandH) =  -3026.30702005     A.U. after   13 cycles
 SCF Done:  E(ULC-wPBE) =  -3033.44521720     A.U. after   16 cycles
 SCF Done:  E(UB-P86) =  -3034.62021490     A.U. after   15 cycles
 SCF Done:  E(UmPW1LYP) =  -3034.03415344     A.U. after   14 cycles
 SCF Done:  E(UmPW1PBE) =  -3033.87724772     A.U. after   14 cycles
 SCF Done:  E(UmPW3PBE) =  -3033.64928180     A.U. after   13 cycles
 SCF Done:  E(UM11) =  -3033.80017516     A.U. after   17 cycles
 SCF Done:  E(UN12SX) =  -3033.24310358     A.U. after   15 cycles
 SCF Done:  E(UMN12SX) =  -3033.64086591     A.U. after   16 cycles
 SCF Done:  E(UB1B95) =  -3034.36996384     A.U. after   15 cycles
 Normal termination of Gaussian 16 at Tue Feb 11 22:49:33 2020.
 SCF Done:  E(UB3PW91) =  -3033.96461033     A.U. after   13 cycles
 Normal termination of Gaussian 16 at Tue Feb 11 23:05:25 2020.
 SCF Done:  E(UM06L) =  -3034.18116984     A.U. after   18 cycles
 Normal termination of Gaussian 16 at Tue Feb 11 23:26:28 2020.
 Gaussian 16:  ES64L-G16RevA.03 25-Dec-2016

                         Standard orientation:
 ---------------------------------------------------------------------
 Center     Atomic      Atomic             Coordinates (Angstroms)
 Number     Number       Type             X           Y           Z
 ---------------------------------------------------------------------
      1          8           0       -0.321238   -0.235899   -0.606507
      2          6           0       -1.352072   -1.126908   -0.476732
      3          6           0       -2.856416   -0.122596   -0.088393
      4          6           0       -2.145625    1.110595   -0.221115
      5          6           0       -2.006075    1.783693   -1.530350
      6         26           0        1.393614    0.041990    0.029639
      7         17           0        1.789070    2.086835   -0.749767
      8          6           0       -1.578184    1.805377    0.954423
      9         17           0        2.667360   -1.584207   -0.720831
     10         17           0        1.266499    0.050057    2.255532
     11          1           0       -3.504063   -0.322843   -0.941875
     12          1           0       -2.410504    2.351895    1.428907
     13          1           0       -1.185140    1.112698    1.702131
     14          1           0       -0.800212    2.517758    0.674824
     15          1           0       -2.568012    2.729491   -1.469043
     16          1           0       -0.955716    2.049245   -1.697438
     17          1           0       -2.396718    1.196648   -2.362070
     18          6           0       -3.512212   -0.471076    1.237710
     19          1           0       -4.363233    0.194045    1.427300
     20          1           0       -3.896057   -1.493846    1.212126
     21          1           0       -2.827698   -0.391062    2.084431
     22          6           0       -1.156161   -2.115772    0.654477
     23          1           0       -2.000081   -2.801067    0.763836
     24          1           0       -0.265542   -2.703375    0.395455
     25          1           0       -0.946958   -1.618361    1.602513
     26          6           0       -1.671143   -1.788120   -1.806986
     27          1           0       -0.792571   -2.379312   -2.091820
     28          1           0       -2.540239   -2.449633   -1.739725
     29          1           0       -1.833799   -1.043633   -2.590184
 ---------------------------------------------------------------------

 SCF Done:  E(UB97D3) =  -3034.60166352     A.U. after   14 cycles
 Normal termination of Gaussian 16 at Tue Feb 11 23:38:29 2020.
