 Gaussian 16, Revision A.03,

 --------------------------------
 #t pop=none jul-cc-pvdz upbe1pbe
 --------------------------------
 ------------------------
 theory_abbreviation pbe0
 ------------------------
 Symbolic Z-matrix:
 Charge =  0 Multiplicity = 6

 SCF Done:  E(UPBE1PBE) =  -3033.11353199     A.U. after   21 cycles
 Normal termination of Gaussian 16 at Tue Feb 11 13:59:27 2020.

 ---------------------------------------------------------------------
 #t pop=none jul-cc-pvdz guess=read upbe1pbe empiricaldispersion=gd3bj
 ---------------------------------------------------------------------
 -----------------------------
 theory_abbreviation pbe0_d3bj
 -----------------------------
 Symbolic Z-matrix:
 Charge =  0 Multiplicity = 6

 SCF Done:  E(UPBE1PBE) =  -3033.14962336     A.U. after    1 cycles
 Normal termination of Gaussian 16 at Tue Feb 11 14:00:38 2020.

 -----------------------------------------
 #t pop=none jul-cc-pvdz guess=read ub3lyp
 -----------------------------------------
 -------------------------
 theory_abbreviation b3lyp
 -------------------------
 Symbolic Z-matrix:
 Charge =  0 Multiplicity = 6

 SCF Done:  E(UB3LYP) =  -3034.32693703     A.U. after   13 cycles
 Normal termination of Gaussian 16 at Tue Feb 11 14:14:38 2020.

 -------------------------------------------------------------------
 #t pop=none jul-cc-pvdz guess=read ub3lyp empiricaldispersion=gd3bj
 -------------------------------------------------------------------
 ------------------------------
 theory_abbreviation b3lyp_d3bj
 ------------------------------
 Symbolic Z-matrix:
 Charge =  0 Multiplicity = 6

 SCF Done:  E(UB3LYP) =  -3034.39424127     A.U. after    1 cycles
 Normal termination of Gaussian 16 at Tue Feb 11 14:15:50 2020.

 ----------------------------------------
 #t pop=none jul-cc-pvdz guess=read ub97d
 ----------------------------------------
 ------------------------
 theory_abbreviation b97d
 ------------------------
 Symbolic Z-matrix:
 Charge =  0 Multiplicity = 6

 SCF Done:  E(UB97D) =  -3034.57928915     A.U. after   17 cycles

 ----------------------------------------------------------------
 #t pop=none jul-cc-pvdz guess=read ub97d empiricaldispersion=gd3
 ----------------------------------------------------------------
 -------------------------
 theory_abbreviation b97d3
 -------------------------
 Symbolic Z-matrix:
 Charge =  0 Multiplicity = 6

 SCF Done:  E(UB97D) =  -3034.57961389     A.U. after    1 cycles
 SCF Done:  E(UBHandHLYP) =  -3033.96709689     A.U. after   17 cycles
 SCF Done:  E(UBHandH) =  -3026.31414601     A.U. after   16 cycles
 SCF Done:  E(ULC-wPBE) =  -3033.45158182     A.U. after   18 cycles
 SCF Done:  E(UB-P86) =  -3034.63194132     A.U. after   17 cycles
 SCF Done:  E(UmPW1LYP) =  -3034.04465756     A.U. after   15 cycles
 SCF Done:  E(UmPW1PBE) =  -3033.88803533     A.U. after   16 cycles
 SCF Done:  E(UmPW3PBE) =  -3033.66071793     A.U. after   15 cycles
 SCF Done:  E(UM11) =  -3033.80893344     A.U. after   19 cycles
 SCF Done:  E(UN12SX) =  -3033.25315146     A.U. after   17 cycles
 SCF Done:  E(UMN12SX) =  -3033.64884183     A.U. after   16 cycles
 SCF Done:  E(UB1B95) =  -3034.38077429     A.U. after   16 cycles
 Normal termination of Gaussian 16 at Tue Feb 11 23:13:17 2020.
 SCF Done:  E(UB3PW91) =  -3033.97620123     A.U. after   15 cycles
 Normal termination of Gaussian 16 at Tue Feb 11 23:28:37 2020.
 SCF Done:  E(UM06L) =  -3034.19275320     A.U. after   16 cycles
 Normal termination of Gaussian 16 at Tue Feb 11 23:46:10 2020.
 Gaussian 16:  ES64L-G16RevA.03 25-Dec-2016

                         Standard orientation:
 ---------------------------------------------------------------------
 Center     Atomic      Atomic             Coordinates (Angstroms)
 Number     Number       Type             X           Y           Z
 ---------------------------------------------------------------------
      1          8           0       -0.335672   -0.128494   -0.458169
      2          6           0       -1.204904   -1.099725   -0.287412
      3          6           0       -2.610896   -0.363212    0.756973
      4          6           0       -2.917994    0.728640   -0.058894
      5          6           0       -3.947376    0.637009   -1.132514
      6         26           0        1.490258    0.174140   -0.082771
      7         17           0        1.800718    2.192004   -0.898162
      8          6           0       -2.161145    1.987025    0.046062
      9         17           0        2.546782   -1.466350   -1.096012
     10         17           0        1.747486    0.114458    2.112329
     11          1           0       -3.325781   -1.184176    0.693503
     12          1           0       -2.588709    2.798059   -0.546407
     13          1           0       -1.999111    2.306041    1.079258
     14          1           0       -1.153037    1.747545   -0.351220
     15          1           0       -4.770688    1.315680   -0.864898
     16          1           0       -3.555094    1.001803   -2.090054
     17          1           0       -4.356213   -0.366984   -1.255418
     18          6           0       -2.038015   -0.113344    2.145336
     19          1           0       -2.684087    0.578672    2.696942
     20          1           0       -1.988342   -1.041873    2.715853
     21          1           0       -1.032879    0.312724    2.107391
     22          6           0       -0.750674   -2.243010    0.619199
     23          1           0       -1.567091   -2.927219    0.864656
     24          1           0        0.007707   -2.793362    0.048981
     25          1           0       -0.275348   -1.880057    1.529613
     26          6           0       -1.805969   -1.603985   -1.593991
     27          1           0       -1.028647   -2.199441   -2.085789
     28          1           0       -2.679590   -2.243215   -1.437086
     29          1           0       -2.057354   -0.782152   -2.265129
 ---------------------------------------------------------------------

 SCF Done:  E(UB97D3) =  -3034.61382680     A.U. after   16 cycles
 Normal termination of Gaussian 16 at Tue Feb 11 23:58:44 2020.
