 Gaussian 16, Revision A.03,

 --------------------------------
 #t pop=none jul-cc-pvdz upbe1pbe
 --------------------------------
 ------------------------
 theory_abbreviation pbe0
 ------------------------
 Symbolic Z-matrix:
 Charge =  0 Multiplicity = 6

 SCF Done:  E(UPBE1PBE) =  -3033.13734444     A.U. after   20 cycles
 Normal termination of Gaussian 16 at Wed Feb 12 14:11:54 2020.

 ---------------------------------------------------------------------
 #t pop=none jul-cc-pvdz guess=read upbe1pbe empiricaldispersion=gd3bj
 ---------------------------------------------------------------------
 -----------------------------
 theory_abbreviation pbe0_d3bj
 -----------------------------
 Symbolic Z-matrix:
 Charge =  0 Multiplicity = 6

 SCF Done:  E(UPBE1PBE) =  -3033.17358741     A.U. after    1 cycles
 Normal termination of Gaussian 16 at Wed Feb 12 14:13:05 2020.

 -----------------------------------------
 #t pop=none jul-cc-pvdz guess=read ub3lyp
 -----------------------------------------
 -------------------------
 theory_abbreviation b3lyp
 -------------------------
 Symbolic Z-matrix:
 Charge =  0 Multiplicity = 6

 SCF Done:  E(UB3LYP) =  -3034.35587341     A.U. after   13 cycles
 Normal termination of Gaussian 16 at Wed Feb 12 14:26:38 2020.

 -------------------------------------------------------------------
 #t pop=none jul-cc-pvdz guess=read ub3lyp empiricaldispersion=gd3bj
 -------------------------------------------------------------------
 ------------------------------
 theory_abbreviation b3lyp_d3bj
 ------------------------------
 Symbolic Z-matrix:
 Charge =  0 Multiplicity = 6

 SCF Done:  E(UB3LYP) =  -3034.42294430     A.U. after    1 cycles
 Normal termination of Gaussian 16 at Wed Feb 12 14:27:48 2020.

 ----------------------------------------
 #t pop=none jul-cc-pvdz guess=read ub97d
 ----------------------------------------
 ------------------------
 theory_abbreviation b97d
 ------------------------
 Symbolic Z-matrix:
 Charge =  0 Multiplicity = 6

 SCF Done:  E(UB97D) =  -3034.60610025     A.U. after   15 cycles

 ----------------------------------------------------------------
 #t pop=none jul-cc-pvdz guess=read ub97d empiricaldispersion=gd3
 ----------------------------------------------------------------
 -------------------------
 theory_abbreviation b97d3
 -------------------------
 Symbolic Z-matrix:
 Charge =  0 Multiplicity = 6

 SCF Done:  E(UB97D) =  -3034.60755331     A.U. after    2 cycles
 SCF Done:  E(UBHandHLYP) =  -3033.99762625     A.U. after   17 cycles
 SCF Done:  E(UBHandH) =  -3026.33337761     A.U. after   14 cycles
 SCF Done:  E(ULC-wPBE) =  -3033.47832009     A.U. after   17 cycles
 SCF Done:  E(UB-P86) =  -3034.65498836     A.U. after   17 cycles
 SCF Done:  E(UmPW1LYP) =  -3034.07421821     A.U. after   13 cycles
 SCF Done:  E(UmPW1PBE) =  -3033.91181942     A.U. after   14 cycles
 SCF Done:  E(UmPW3PBE) =  -3033.68481701     A.U. after   13 cycles
 SCF Done:  E(UM11) =  -3033.83581669     A.U. after   17 cycles
 SCF Done:  E(UN12SX) =  -3033.27627470     A.U. after   16 cycles
 SCF Done:  E(UMN12SX) =  -3033.67847210     A.U. after   16 cycles
 SCF Done:  E(UB1B95) =  -3034.40788218     A.U. after   14 cycles
 Normal termination of Gaussian 16 at Wed Feb 12 21:55:06 2020.
 SCF Done:  E(UB3PW91) =  -3034.00107126     A.U. after   13 cycles
 Normal termination of Gaussian 16 at Wed Feb 12 22:07:40 2020.
 SCF Done:  E(UM06L) =  -3034.22303878     A.U. after   17 cycles
 Normal termination of Gaussian 16 at Wed Feb 12 22:25:34 2020.
 Gaussian 16:  ES64L-G16RevA.03 25-Dec-2016

                         Standard orientation:
 ---------------------------------------------------------------------
 Center     Atomic      Atomic             Coordinates (Angstroms)
 Number     Number       Type             X           Y           Z
 ---------------------------------------------------------------------
      1          8           0        0.168132    0.407145   -0.889105
      2          6           0        0.954715    1.360669   -0.683951
      3          6           0        3.074895    0.135608    0.567675
      4          6           0        2.698589   -0.928163   -0.170597
      5          6           0        3.207937   -1.131365   -1.572048
      6         26           0       -1.492658   -0.171951    0.009605
      7         17           0       -2.054265   -2.000097   -1.023187
      8          6           0        1.774013   -2.007238    0.313249
      9         17           0       -2.765861    1.569500   -0.352920
     10         17           0       -1.057492   -0.445877    2.142612
     11          1           0        3.791869    0.823986    0.118684
     12          1           0        2.295273   -2.973815    0.316188
     13          1           0        1.378621   -1.830798    1.313218
     14          1           0        0.926352   -2.120408   -0.375410
     15          1           0        3.752856   -2.082026   -1.640033
     16          1           0        2.375186   -1.203848   -2.284634
     17          1           0        3.883905   -0.333363   -1.892501
     18          6           0        2.809637    0.350085    2.034514
     19          1           0        3.607812   -0.110209    2.632873
     20          1           0        2.804692    1.414445    2.289480
     21          1           0        1.861458   -0.079922    2.366098
     22          6           0        0.787696    2.253317    0.504842
     23          1           0        1.674604    2.859339    0.692372
     24          1           0       -0.051593    2.923589    0.265521
     25          1           0        0.507517    1.691209    1.396153
     26          6           0        1.799221    1.833857   -1.827333
     27          1           0        1.228633    2.637988   -2.315384
     28          1           0        2.747483    2.256128   -1.492359
     29          1           0        1.958685    1.040687   -2.555849
 ---------------------------------------------------------------------

 SCF Done:  E(UB97D3) =  -3034.64228888     A.U. after   16 cycles
 Normal termination of Gaussian 16 at Wed Feb 12 22:37:47 2020.
