 Gaussian 16, Revision A.03,

 --------------------------------
 #t pop=none jul-cc-pvdz upbe1pbe
 --------------------------------
 ------------------------
 theory_abbreviation pbe0
 ------------------------
 Symbolic Z-matrix:
 Charge =  0 Multiplicity = 6

 SCF Done:  E(UPBE1PBE) =  -3033.10989011     A.U. after   20 cycles
 Normal termination of Gaussian 16 at Tue Feb 11 13:56:00 2020.

 ---------------------------------------------------------------------
 #t pop=none jul-cc-pvdz guess=read upbe1pbe empiricaldispersion=gd3bj
 ---------------------------------------------------------------------
 -----------------------------
 theory_abbreviation pbe0_d3bj
 -----------------------------
 Symbolic Z-matrix:
 Charge =  0 Multiplicity = 6

 SCF Done:  E(UPBE1PBE) =  -3033.14712844     A.U. after    1 cycles
 Normal termination of Gaussian 16 at Tue Feb 11 13:57:12 2020.

 -----------------------------------------
 #t pop=none jul-cc-pvdz guess=read ub3lyp
 -----------------------------------------
 -------------------------
 theory_abbreviation b3lyp
 -------------------------
 Symbolic Z-matrix:
 Charge =  0 Multiplicity = 6

 SCF Done:  E(UB3LYP) =  -3034.32218640     A.U. after   13 cycles
 Normal termination of Gaussian 16 at Tue Feb 11 14:10:53 2020.

 -------------------------------------------------------------------
 #t pop=none jul-cc-pvdz guess=read ub3lyp empiricaldispersion=gd3bj
 -------------------------------------------------------------------
 ------------------------------
 theory_abbreviation b3lyp_d3bj
 ------------------------------
 Symbolic Z-matrix:
 Charge =  0 Multiplicity = 6

 SCF Done:  E(UB3LYP) =  -3034.39155146     A.U. after    1 cycles
 Normal termination of Gaussian 16 at Tue Feb 11 14:12:04 2020.

 ----------------------------------------
 #t pop=none jul-cc-pvdz guess=read ub97d
 ----------------------------------------
 ------------------------
 theory_abbreviation b97d
 ------------------------
 Symbolic Z-matrix:
 Charge =  0 Multiplicity = 6

 SCF Done:  E(UB97D) =  -3034.57189503     A.U. after   16 cycles

 ----------------------------------------------------------------
 #t pop=none jul-cc-pvdz guess=read ub97d empiricaldispersion=gd3
 ----------------------------------------------------------------
 -------------------------
 theory_abbreviation b97d3
 -------------------------
 Symbolic Z-matrix:
 Charge =  0 Multiplicity = 6

 SCF Done:  E(UB97D) =  -3034.57297198     A.U. after    1 cycles
 SCF Done:  E(UBHandHLYP) =  -3033.96751270     A.U. after   15 cycles
 SCF Done:  E(UBHandH) =  -3026.31531158     A.U. after   14 cycles
 SCF Done:  E(ULC-wPBE) =  -3033.45586639     A.U. after   16 cycles
 SCF Done:  E(UB-P86) =  -3034.62792530     A.U. after   17 cycles
 SCF Done:  E(UmPW1LYP) =  -3034.04091596     A.U. after   14 cycles
 SCF Done:  E(UmPW1PBE) =  -3033.88420271     A.U. after   14 cycles
 SCF Done:  E(UmPW3PBE) =  -3033.65613012     A.U. after   13 cycles
 SCF Done:  E(UM11) =  -3033.80613338     A.U. after   16 cycles
 SCF Done:  E(UN12SX) =  -3033.24996142     A.U. after   16 cycles
 SCF Done:  E(UMN12SX) =  -3033.64658796     A.U. after   16 cycles
 SCF Done:  E(UB1B95) =  -3034.37554046     A.U. after   15 cycles
 Normal termination of Gaussian 16 at Tue Feb 11 22:25:57 2020.
 SCF Done:  E(UB3PW91) =  -3033.97138736     A.U. after   14 cycles
 Normal termination of Gaussian 16 at Tue Feb 11 22:40:16 2020.
 SCF Done:  E(UM06L) =  -3034.18761068     A.U. after   18 cycles
 Normal termination of Gaussian 16 at Tue Feb 11 23:01:53 2020.
 Gaussian 16:  ES64L-G16RevA.03 25-Dec-2016

                         Standard orientation:
 ---------------------------------------------------------------------
 Center     Atomic      Atomic             Coordinates (Angstroms)
 Number     Number       Type             X           Y           Z
 ---------------------------------------------------------------------
      1          8           0       -0.318147   -0.338795   -0.682210
      2          6           0       -1.446473   -1.202747   -0.465500
      3          6           0       -2.633099   -0.220948   -0.031919
      4          6           0       -2.019645    1.142612   -0.234618
      5          6           0       -2.015310    1.775803   -1.564686
      6         26           0        1.351177    0.032848    0.011177
      7         17           0        1.658985    2.099971   -0.766790
      8          6           0       -1.560298    1.944065    0.907919
      9         17           0        2.783219   -1.491887   -0.640787
     10         17           0        1.124017    0.091328    2.239011
     11          1           0       -3.437886   -0.325613   -0.770024
     12          1           0       -2.464437    2.278357    1.444289
     13          1           0       -0.989520    1.339410    1.623084
     14          1           0       -0.973764    2.811055    0.602336
     15          1           0       -2.673122    2.659296   -1.516147
     16          1           0       -1.004058    2.154434   -1.766790
     17          1           0       -2.348953    1.115919   -2.364380
     18          6           0       -3.220452   -0.445869    1.364215
     19          1           0       -4.018054    0.275495    1.573713
     20          1           0       -3.660371   -1.444682    1.420006
     21          1           0       -2.468824   -0.367978    2.152752
     22          6           0       -1.104616   -2.256844    0.582815
     23          1           0       -1.931254   -2.957144    0.740093
     24          1           0       -0.242386   -2.824134    0.215942
     25          1           0       -0.822850   -1.808517    1.536877
     26          6           0       -1.773894   -1.871966   -1.800319
     27          1           0       -0.913557   -2.466818   -2.120809
     28          1           0       -2.645441   -2.530416   -1.709319
     29          1           0       -1.973977   -1.126995   -2.576363
 ---------------------------------------------------------------------

 SCF Done:  E(UB97D3) =  -3034.60821430     A.U. after   16 cycles
 Normal termination of Gaussian 16 at Tue Feb 11 23:14:45 2020.
