 Gaussian 16, Revision A.03,

 --------------------------------
 #t pop=none jul-cc-pvdz upbe1pbe
 --------------------------------
 ------------------------
 theory_abbreviation pbe0
 ------------------------
 Symbolic Z-matrix:
 Charge =  0 Multiplicity = 6

 SCF Done:  E(UPBE1PBE) =  -3033.11422027     A.U. after   21 cycles
 Normal termination of Gaussian 16 at Tue Feb 11 13:59:15 2020.

 ---------------------------------------------------------------------
 #t pop=none jul-cc-pvdz guess=read upbe1pbe empiricaldispersion=gd3bj
 ---------------------------------------------------------------------
 -----------------------------
 theory_abbreviation pbe0_d3bj
 -----------------------------
 Symbolic Z-matrix:
 Charge =  0 Multiplicity = 6

 SCF Done:  E(UPBE1PBE) =  -3033.14997779     A.U. after    1 cycles
 Normal termination of Gaussian 16 at Tue Feb 11 14:00:27 2020.

 -----------------------------------------
 #t pop=none jul-cc-pvdz guess=read ub3lyp
 -----------------------------------------
 -------------------------
 theory_abbreviation b3lyp
 -------------------------
 Symbolic Z-matrix:
 Charge =  0 Multiplicity = 6

 SCF Done:  E(UB3LYP) =  -3034.32820865     A.U. after   13 cycles
 Normal termination of Gaussian 16 at Tue Feb 11 14:14:20 2020.

 -------------------------------------------------------------------
 #t pop=none jul-cc-pvdz guess=read ub3lyp empiricaldispersion=gd3bj
 -------------------------------------------------------------------
 ------------------------------
 theory_abbreviation b3lyp_d3bj
 ------------------------------
 Symbolic Z-matrix:
 Charge =  0 Multiplicity = 6

 SCF Done:  E(UB3LYP) =  -3034.39490352     A.U. after    1 cycles
 Normal termination of Gaussian 16 at Tue Feb 11 14:15:31 2020.

 ----------------------------------------
 #t pop=none jul-cc-pvdz guess=read ub97d
 ----------------------------------------
 ------------------------
 theory_abbreviation b97d
 ------------------------
 Symbolic Z-matrix:
 Charge =  0 Multiplicity = 6

 SCF Done:  E(UB97D) =  -3034.58082846     A.U. after   17 cycles

 ----------------------------------------------------------------
 #t pop=none jul-cc-pvdz guess=read ub97d empiricaldispersion=gd3
 ----------------------------------------------------------------
 -------------------------
 theory_abbreviation b97d3
 -------------------------
 Symbolic Z-matrix:
 Charge =  0 Multiplicity = 6

 SCF Done:  E(UB97D) =  -3034.58088684     A.U. after    1 cycles
 SCF Done:  E(UBHandHLYP) =  -3033.96755921     A.U. after   17 cycles
 SCF Done:  E(UBHandH) =  -3026.31331636     A.U. after   16 cycles
 SCF Done:  E(ULC-wPBE) =  -3033.45133585     A.U. after   18 cycles
 SCF Done:  E(UB-P86) =  -3034.63295387     A.U. after   17 cycles
 SCF Done:  E(UmPW1LYP) =  -3034.04577114     A.U. after   15 cycles
 SCF Done:  E(UmPW1PBE) =  -3033.88880245     A.U. after   16 cycles
 SCF Done:  E(UmPW3PBE) =  -3033.66163215     A.U. after   15 cycles
 SCF Done:  E(UM11) =  -3033.80898026     A.U. after   19 cycles
 SCF Done:  E(UN12SX) =  -3033.25380999     A.U. after   17 cycles
 SCF Done:  E(UMN12SX) =  -3033.64932288     A.U. after   17 cycles
 SCF Done:  E(UB1B95) =  -3034.38138548     A.U. after   16 cycles
 Normal termination of Gaussian 16 at Tue Feb 11 23:08:49 2020.
 SCF Done:  E(UB3PW91) =  -3033.97722648     A.U. after   15 cycles
 Normal termination of Gaussian 16 at Tue Feb 11 23:24:05 2020.
 SCF Done:  E(UM06L) =  -3034.19355368     A.U. after   16 cycles
 Normal termination of Gaussian 16 at Tue Feb 11 23:41:34 2020.
 Gaussian 16:  ES64L-G16RevA.03 25-Dec-2016

                         Standard orientation:
 ---------------------------------------------------------------------
 Center     Atomic      Atomic             Coordinates (Angstroms)
 Number     Number       Type             X           Y           Z
 ---------------------------------------------------------------------
      1          8           0       -0.306455   -0.130553   -0.429124
      2          6           0       -1.195596   -1.073551   -0.204064
      3          6           0       -2.584166   -0.290658    0.829839
      4          6           0       -3.070287    0.669295   -0.066534
      5          6           0       -4.203162    0.383462   -0.988961
      6         26           0        1.530374    0.171862   -0.099249
      7         17           0        1.865867    2.144292   -1.003798
      8          6           0       -2.365226    1.957721   -0.208928
      9         17           0        2.527578   -1.530802   -1.071775
     10         17           0        1.845802    0.185632    2.087033
     11          1           0       -3.236009   -1.157652    0.942356
     12          1           0       -2.840539    2.638566   -0.917249
     13          1           0       -2.207003    2.457904    0.752065
     14          1           0       -1.346827    1.698184   -0.568620
     15          1           0       -5.035726    1.049040   -0.716115
     16          1           0       -3.944968    0.633767   -2.025461
     17          1           0       -4.554603   -0.648156   -0.931904
     18          6           0       -1.913338    0.176878    2.116456
     19          1           0       -2.547486    0.909853    2.626951
     20          1           0       -1.763223   -0.660356    2.799217
     21          1           0       -0.939753    0.634235    1.929914
     22          6           0       -0.744462   -2.178832    0.751494
     23          1           0       -1.563337   -2.845204    1.034128
     24          1           0        0.006959   -2.759982    0.202933
     25          1           0       -0.259816   -1.776368    1.640492
     26          6           0       -1.816368   -1.622947   -1.482390
     27          1           0       -1.050513   -2.239270   -1.966344
     28          1           0       -2.691159   -2.250394   -1.289077
     29          1           0       -2.075650   -0.821426   -2.176127
 ---------------------------------------------------------------------

 SCF Done:  E(UB97D3) =  -3034.61510104     A.U. after   16 cycles
 Normal termination of Gaussian 16 at Tue Feb 11 23:54:09 2020.
