 Gaussian 16, Revision A.03,

 --------------------------------
 #t pop=none jul-cc-pvdz upbe1pbe
 --------------------------------
 ------------------------
 theory_abbreviation pbe0
 ------------------------
 Symbolic Z-matrix:
 Charge =  0 Multiplicity = 6

 SCF Done:  E(UPBE1PBE) =  -3033.12030577     A.U. after   21 cycles
 Normal termination of Gaussian 16 at Tue Feb 11 13:58:37 2020.

 ---------------------------------------------------------------------
 #t pop=none jul-cc-pvdz guess=read upbe1pbe empiricaldispersion=gd3bj
 ---------------------------------------------------------------------
 -----------------------------
 theory_abbreviation pbe0_d3bj
 -----------------------------
 Symbolic Z-matrix:
 Charge =  0 Multiplicity = 6

 SCF Done:  E(UPBE1PBE) =  -3033.15678017     A.U. after    1 cycles
 Normal termination of Gaussian 16 at Tue Feb 11 13:59:52 2020.

 -----------------------------------------
 #t pop=none jul-cc-pvdz guess=read ub3lyp
 -----------------------------------------
 -------------------------
 theory_abbreviation b3lyp
 -------------------------
 Symbolic Z-matrix:
 Charge =  0 Multiplicity = 6

 SCF Done:  E(UB3LYP) =  -3034.33625796     A.U. after   15 cycles
 Normal termination of Gaussian 16 at Tue Feb 11 14:15:14 2020.

 -------------------------------------------------------------------
 #t pop=none jul-cc-pvdz guess=read ub3lyp empiricaldispersion=gd3bj
 -------------------------------------------------------------------
 ------------------------------
 theory_abbreviation b3lyp_d3bj
 ------------------------------
 Symbolic Z-matrix:
 Charge =  0 Multiplicity = 6

 SCF Done:  E(UB3LYP) =  -3034.40423865     A.U. after    1 cycles
 Normal termination of Gaussian 16 at Tue Feb 11 14:16:33 2020.

 ----------------------------------------
 #t pop=none jul-cc-pvdz guess=read ub97d
 ----------------------------------------
 ------------------------
 theory_abbreviation b97d
 ------------------------
 Symbolic Z-matrix:
 Charge =  0 Multiplicity = 6

 SCF Done:  E(UB97D) =  -3034.58882448     A.U. after   16 cycles

 ----------------------------------------------------------------
 #t pop=none jul-cc-pvdz guess=read ub97d empiricaldispersion=gd3
 ----------------------------------------------------------------
 -------------------------
 theory_abbreviation b97d3
 -------------------------
 Symbolic Z-matrix:
 Charge =  0 Multiplicity = 6

 SCF Done:  E(UB97D) =  -3034.59011490     A.U. after    1 cycles
 SCF Done:  E(UBHandHLYP) =  -3033.97549153     A.U. after   17 cycles
 SCF Done:  E(UBHandH) =  -3026.31797545     A.U. after   16 cycles
 SCF Done:  E(ULC-wPBE) =  -3033.45801104     A.U. after   19 cycles
 SCF Done:  E(UB-P86) =  -3034.64027898     A.U. after   17 cycles
 SCF Done:  E(UmPW1LYP) =  -3034.05396769     A.U. after   16 cycles
 SCF Done:  E(UmPW1PBE) =  -3033.89494767     A.U. after   16 cycles
 SCF Done:  E(UmPW3PBE) =  -3033.66798164     A.U. after   12 cycles
 SCF Done:  E(UM11) =  -3033.81606526     A.U. after   19 cycles
 SCF Done:  E(UN12SX) =  -3033.25932871     A.U. after   17 cycles
 SCF Done:  E(UMN12SX) =  -3033.65704541     A.U. after   17 cycles
 SCF Done:  E(UB1B95) =  -3034.38882404     A.U. after   15 cycles
 Normal termination of Gaussian 16 at Tue Feb 11 22:53:30 2020.
 SCF Done:  E(UB3PW91) =  -3033.98380758     A.U. after   15 cycles
 Normal termination of Gaussian 16 at Tue Feb 11 23:08:36 2020.
 SCF Done:  E(UM06L) =  -3034.20116617     A.U. after   16 cycles
 Normal termination of Gaussian 16 at Tue Feb 11 23:26:01 2020.
 Gaussian 16:  ES64L-G16RevA.03 25-Dec-2016

                         Standard orientation:
 ---------------------------------------------------------------------
 Center     Atomic      Atomic             Coordinates (Angstroms)
 Number     Number       Type             X           Y           Z
 ---------------------------------------------------------------------
      1          8           0       -0.303766   -0.206968   -0.502739
      2          6           0       -1.131560   -1.160374   -0.272024
      3          6           0       -2.697159   -0.234359    0.874230
      4          6           0       -3.026254    0.697504   -0.078470
      5          6           0       -4.086299    0.445228   -1.103693
      6         26           0        1.531797    0.179273   -0.093530
      7         17           0        1.852215    2.117704   -1.053771
      8          6           0       -2.291007    1.989331   -0.172281
      9         17           0        2.570304   -1.540294   -0.978146
     10         17           0        1.775557    0.258143    2.092405
     11          1           0       -3.332117   -1.118028    0.924555
     12          1           0       -2.776898    2.696754   -0.848412
     13          1           0       -2.143939    2.459660    0.804540
     14          1           0       -1.283295    1.772896   -0.566683
     15          1           0       -4.909485    1.153256   -0.933769
     16          1           0       -3.719280    0.644037   -2.118500
     17          1           0       -4.494018   -0.566891   -1.056188
     18          6           0       -1.982042    0.156242    2.150205
     19          1           0       -2.558333    0.923546    2.681111
     20          1           0       -1.877396   -0.696285    2.823386
     21          1           0       -0.984477    0.562310    1.965788
     22          6           0       -0.753665   -2.186955    0.776510
     23          1           0       -1.596829   -2.812033    1.077346
     24          1           0       -0.001516   -2.827573    0.295171
     25          1           0       -0.282078   -1.731849    1.646352
     26          6           0       -1.841614   -1.715793   -1.486220
     27          1           0       -1.129366   -2.398589   -1.967802
     28          1           0       -2.737093   -2.285276   -1.228069
     29          1           0       -2.080178   -0.930627   -2.202963
 ---------------------------------------------------------------------

 SCF Done:  E(UB97D3) =  -3034.62528270     A.U. after   15 cycles
 Normal termination of Gaussian 16 at Tue Feb 11 23:37:41 2020.
