 Gaussian 16, Revision A.03,

 --------------------------------
 #t pop=none jul-cc-pvdz upbe1pbe
 --------------------------------
 ------------------------
 theory_abbreviation pbe0
 ------------------------
 Symbolic Z-matrix:
 Charge =  0 Multiplicity = 6

 SCF Done:  E(UPBE1PBE) =  -3033.13974543     A.U. after   20 cycles
 Normal termination of Gaussian 16 at Wed Feb 12 14:13:02 2020.

 ---------------------------------------------------------------------
 #t pop=none jul-cc-pvdz guess=read upbe1pbe empiricaldispersion=gd3bj
 ---------------------------------------------------------------------
 -----------------------------
 theory_abbreviation pbe0_d3bj
 -----------------------------
 Symbolic Z-matrix:
 Charge =  0 Multiplicity = 6

 SCF Done:  E(UPBE1PBE) =  -3033.17559234     A.U. after    1 cycles
 Normal termination of Gaussian 16 at Wed Feb 12 14:14:08 2020.

 -----------------------------------------
 #t pop=none jul-cc-pvdz guess=read ub3lyp
 -----------------------------------------
 -------------------------
 theory_abbreviation b3lyp
 -------------------------
 Symbolic Z-matrix:
 Charge =  0 Multiplicity = 6

 SCF Done:  E(UB3LYP) =  -3034.35870989     A.U. after   13 cycles
 Normal termination of Gaussian 16 at Wed Feb 12 14:27:02 2020.

 -------------------------------------------------------------------
 #t pop=none jul-cc-pvdz guess=read ub3lyp empiricaldispersion=gd3bj
 -------------------------------------------------------------------
 ------------------------------
 theory_abbreviation b3lyp_d3bj
 ------------------------------
 Symbolic Z-matrix:
 Charge =  0 Multiplicity = 6

 SCF Done:  E(UB3LYP) =  -3034.42492293     A.U. after    1 cycles
 Normal termination of Gaussian 16 at Wed Feb 12 14:28:09 2020.

 ----------------------------------------
 #t pop=none jul-cc-pvdz guess=read ub97d
 ----------------------------------------
 ------------------------
 theory_abbreviation b97d
 ------------------------
 Symbolic Z-matrix:
 Charge =  0 Multiplicity = 6

 SCF Done:  E(UB97D) =  -3034.60731781     A.U. after   16 cycles

 ----------------------------------------------------------------
 #t pop=none jul-cc-pvdz guess=read ub97d empiricaldispersion=gd3
 ----------------------------------------------------------------
 -------------------------
 theory_abbreviation b97d3
 -------------------------
 Symbolic Z-matrix:
 Charge =  0 Multiplicity = 6

 SCF Done:  E(UB97D) =  -3034.60939971     A.U. after    2 cycles
 SCF Done:  E(UBHandHLYP) =  -3034.00081298     A.U. after   18 cycles
 SCF Done:  E(UBHandH) =  -3026.33475310     A.U. after   14 cycles
 SCF Done:  E(ULC-wPBE) =  -3033.48129739     A.U. after   17 cycles
 SCF Done:  E(UB-P86) =  -3034.65625525     A.U. after   18 cycles
 SCF Done:  E(UmPW1LYP) =  -3034.07709703     A.U. after   13 cycles
 SCF Done:  E(UmPW1PBE) =  -3033.91426140     A.U. after   14 cycles
 SCF Done:  E(UmPW3PBE) =  -3033.68722025     A.U. after   13 cycles
 SCF Done:  E(UM11) =  -3033.83869676     A.U. after   16 cycles
 SCF Done:  E(UN12SX) =  -3033.27872227     A.U. after   16 cycles
 SCF Done:  E(UMN12SX) =  -3033.68123311     A.U. after   16 cycles
 SCF Done:  E(UB1B95) =  -3034.41078315     A.U. after   14 cycles
 Normal termination of Gaussian 16 at Wed Feb 12 21:58:13 2020.
 SCF Done:  E(UB3PW91) =  -3034.00361376     A.U. after   14 cycles
 Normal termination of Gaussian 16 at Wed Feb 12 22:11:46 2020.
 SCF Done:  E(UM06L) =  -3034.22520298     A.U. after   17 cycles
 Normal termination of Gaussian 16 at Wed Feb 12 22:29:46 2020.
 Gaussian 16:  ES64L-G16RevA.03 25-Dec-2016

                         Standard orientation:
 ---------------------------------------------------------------------
 Center     Atomic      Atomic             Coordinates (Angstroms)
 Number     Number       Type             X           Y           Z
 ---------------------------------------------------------------------
      1          8           0        0.179939    0.476077   -0.861241
      2          6           0        0.884481    1.477723   -0.622832
      3          6           0        3.210983   -0.018766    0.538162
      4          6           0        2.652093   -0.925760   -0.283950
      5          6           0        3.038721   -1.004080   -1.738292
      6         26           0       -1.477604   -0.182821    0.026221
      7         17           0       -2.063773   -1.932341   -1.117180
      8          6           0        1.697606   -2.000642    0.154386
      9         17           0       -2.751731    1.578391   -0.227871
     10         17           0       -1.030387   -0.565230    2.136011
     11          1           0        3.948520    0.659423    0.105142
     12          1           0        2.190051   -2.980338    0.085005
     13          1           0        1.336184   -1.879255    1.175340
     14          1           0        0.830903   -2.051458   -0.515318
     15          1           0        3.502543   -1.975206   -1.956466
     16          1           0        2.152635   -0.935580   -2.382706
     17          1           0        3.748334   -0.221687   -2.024621
     18          6           0        3.020485    0.109272    2.023935
     19          1           0        3.872124   -0.328832    2.562570
     20          1           0        2.970626    1.161427    2.328849
     21          1           0        2.114083   -0.385971    2.380954
     22          6           0        0.758730    2.232595    0.661079
     23          1           0        1.620017    2.878208    0.839293
     24          1           0       -0.141288    2.859426    0.576827
     25          1           0        0.603187    1.555015    1.502307
     26          6           0        1.718072    2.053338   -1.722494
     27          1           0        1.232777    2.987477   -2.040217
     28          1           0        2.716780    2.311455   -1.363046
     29          1           0        1.773862    1.374596   -2.572009
 ---------------------------------------------------------------------

 SCF Done:  E(UB97D3) =  -3034.64375852     A.U. after   17 cycles
 Normal termination of Gaussian 16 at Wed Feb 12 22:42:43 2020.
