 Gaussian 16, Revision A.03,

 --------------------------------
 #t pop=none jul-cc-pvdz upbe1pbe
 --------------------------------
 ------------------------
 theory_abbreviation pbe0
 ------------------------
 Symbolic Z-matrix:
 Charge =  0 Multiplicity = 6

 SCF Done:  E(UPBE1PBE) =  -3033.11320961     A.U. after   21 cycles
 Normal termination of Gaussian 16 at Tue Feb 11 13:59:02 2020.

 ---------------------------------------------------------------------
 #t pop=none jul-cc-pvdz guess=read upbe1pbe empiricaldispersion=gd3bj
 ---------------------------------------------------------------------
 -----------------------------
 theory_abbreviation pbe0_d3bj
 -----------------------------
 Symbolic Z-matrix:
 Charge =  0 Multiplicity = 6

 SCF Done:  E(UPBE1PBE) =  -3033.14876502     A.U. after    1 cycles
 Normal termination of Gaussian 16 at Tue Feb 11 14:00:12 2020.

 -----------------------------------------
 #t pop=none jul-cc-pvdz guess=read ub3lyp
 -----------------------------------------
 -------------------------
 theory_abbreviation b3lyp
 -------------------------
 Symbolic Z-matrix:
 Charge =  0 Multiplicity = 6

 SCF Done:  E(UB3LYP) =  -3034.32757765     A.U. after   14 cycles
 Normal termination of Gaussian 16 at Tue Feb 11 14:14:55 2020.

 -------------------------------------------------------------------
 #t pop=none jul-cc-pvdz guess=read ub3lyp empiricaldispersion=gd3bj
 -------------------------------------------------------------------
 ------------------------------
 theory_abbreviation b3lyp_d3bj
 ------------------------------
 Symbolic Z-matrix:
 Charge =  0 Multiplicity = 6

 SCF Done:  E(UB3LYP) =  -3034.39391461     A.U. after    1 cycles
 Normal termination of Gaussian 16 at Tue Feb 11 14:16:04 2020.

 ----------------------------------------
 #t pop=none jul-cc-pvdz guess=read ub97d
 ----------------------------------------
 ------------------------
 theory_abbreviation b97d
 ------------------------
 Symbolic Z-matrix:
 Charge =  0 Multiplicity = 6

 SCF Done:  E(UB97D) =  -3034.58042302     A.U. after   17 cycles

 ----------------------------------------------------------------
 #t pop=none jul-cc-pvdz guess=read ub97d empiricaldispersion=gd3
 ----------------------------------------------------------------
 -------------------------
 theory_abbreviation b97d3
 -------------------------
 Symbolic Z-matrix:
 Charge =  0 Multiplicity = 6

 SCF Done:  E(UB97D) =  -3034.58033183     A.U. after    1 cycles
 SCF Done:  E(UBHandHLYP) =  -3033.96646719     A.U. after   17 cycles
 SCF Done:  E(UBHandH) =  -3026.31129881     A.U. after   16 cycles
 SCF Done:  E(ULC-wPBE) =  -3033.44976792     A.U. after   19 cycles
 SCF Done:  E(UB-P86) =  -3034.63217815     A.U. after   17 cycles
 SCF Done:  E(UmPW1LYP) =  -3034.04504781     A.U. after   15 cycles
 SCF Done:  E(UmPW1PBE) =  -3033.88784385     A.U. after   16 cycles
 SCF Done:  E(UmPW3PBE) =  -3033.66076049     A.U. after   15 cycles
 SCF Done:  E(UM11) =  -3033.80761856     A.U. after   19 cycles
 SCF Done:  E(UN12SX) =  -3033.25282738     A.U. after   17 cycles
 SCF Done:  E(UMN12SX) =  -3033.64843454     A.U. after   17 cycles
 SCF Done:  E(UB1B95) =  -3034.38041261     A.U. after   16 cycles
 Normal termination of Gaussian 16 at Tue Feb 11 23:08:42 2020.
 SCF Done:  E(UB3PW91) =  -3033.97643095     A.U. after   15 cycles
 Normal termination of Gaussian 16 at Tue Feb 11 23:23:50 2020.
 SCF Done:  E(UM06L) =  -3034.19282133     A.U. after   16 cycles
 Normal termination of Gaussian 16 at Tue Feb 11 23:41:12 2020.
 Gaussian 16:  ES64L-G16RevA.03 25-Dec-2016

                         Standard orientation:
 ---------------------------------------------------------------------
 Center     Atomic      Atomic             Coordinates (Angstroms)
 Number     Number       Type             X           Y           Z
 ---------------------------------------------------------------------
      1          8           0       -0.285073   -0.133631   -0.425121
      2          6           0       -1.187022   -1.049733   -0.143720
      3          6           0       -2.560031   -0.211649    0.867451
      4          6           0       -3.167132    0.624629   -0.080453
      5          6           0       -4.350292    0.195602   -0.873262
      6         26           0        1.556978    0.164505   -0.109629
      7         17           0        1.934004    2.081587   -1.108100
      8          6           0       -2.529161    1.918151   -0.409877
      9         17           0        2.521981   -1.601121   -1.001115
     10         17           0        1.880127    0.272491    2.071898
     11          1           0       -3.158079   -1.087529    1.120899
     12          1           0       -3.051486    2.474548   -1.190244
     13          1           0       -2.400522    2.549304    0.476793
     14          1           0       -1.498338    1.679272   -0.742923
     15          1           0       -5.185254    0.869145   -0.628732
     16          1           0       -4.171629    0.316964   -1.949094
     17          1           0       -4.659816   -0.829472   -0.661761
     18          6           0       -1.835822    0.426986    2.048235
     19          1           0       -2.485267    1.162477    2.535254
     20          1           0       -1.572384   -0.324697    2.792900
     21          1           0       -0.915355    0.926243    1.741982
     22          6           0       -0.738708   -2.112578    0.860857
     23          1           0       -1.557780   -2.766838    1.169364
     24          1           0        0.015309   -2.716033    0.340580
     25          1           0       -0.256658   -1.671734    1.733121
     26          6           0       -1.825075   -1.651020   -1.389803
     27          1           0       -1.069456   -2.293730   -1.855145
     28          1           0       -2.702675   -2.261814   -1.159825
     29          1           0       -2.085908   -0.876784   -2.114041
 ---------------------------------------------------------------------

 SCF Done:  E(UB97D3) =  -3034.61452205     A.U. after   16 cycles
 Normal termination of Gaussian 16 at Tue Feb 11 23:53:42 2020.
