 Gaussian 16, Revision A.03,

 --------------------------------
 #t pop=none jul-cc-pvdz upbe1pbe
 --------------------------------
 ------------------------
 theory_abbreviation pbe0
 ------------------------
 Symbolic Z-matrix:
 Charge =  0 Multiplicity = 6

 SCF Done:  E(UPBE1PBE) =  -3033.13026684     A.U. after   20 cycles
 Normal termination of Gaussian 16 at Tue Feb 11 14:47:04 2020.

 ---------------------------------------------------------------------
 #t pop=none jul-cc-pvdz guess=read upbe1pbe empiricaldispersion=gd3bj
 ---------------------------------------------------------------------
 -----------------------------
 theory_abbreviation pbe0_d3bj
 -----------------------------
 Symbolic Z-matrix:
 Charge =  0 Multiplicity = 6

 SCF Done:  E(UPBE1PBE) =  -3033.16711418     A.U. after    1 cycles
 Normal termination of Gaussian 16 at Tue Feb 11 14:48:15 2020.

 -----------------------------------------
 #t pop=none jul-cc-pvdz guess=read ub3lyp
 -----------------------------------------
 -------------------------
 theory_abbreviation b3lyp
 -------------------------
 Symbolic Z-matrix:
 Charge =  0 Multiplicity = 6

 SCF Done:  E(UB3LYP) =  -3034.34779880     A.U. after   13 cycles
 Normal termination of Gaussian 16 at Tue Feb 11 15:02:07 2020.

 -------------------------------------------------------------------
 #t pop=none jul-cc-pvdz guess=read ub3lyp empiricaldispersion=gd3bj
 -------------------------------------------------------------------
 ------------------------------
 theory_abbreviation b3lyp_d3bj
 ------------------------------
 Symbolic Z-matrix:
 Charge =  0 Multiplicity = 6

 SCF Done:  E(UB3LYP) =  -3034.41614799     A.U. after    1 cycles
 Normal termination of Gaussian 16 at Tue Feb 11 15:03:17 2020.

 ----------------------------------------
 #t pop=none jul-cc-pvdz guess=read ub97d
 ----------------------------------------
 ------------------------
 theory_abbreviation b97d
 ------------------------
 Symbolic Z-matrix:
 Charge =  0 Multiplicity = 6

 SCF Done:  E(UB97D) =  -3034.59872528     A.U. after   16 cycles

 ----------------------------------------------------------------
 #t pop=none jul-cc-pvdz guess=read ub97d empiricaldispersion=gd3
 ----------------------------------------------------------------
 -------------------------
 theory_abbreviation b97d3
 -------------------------
 Symbolic Z-matrix:
 Charge =  0 Multiplicity = 6

 SCF Done:  E(UB97D) =  -3034.60081687     A.U. after    1 cycles
 SCF Done:  E(UBHandHLYP) =  -3033.98985481     A.U. after   18 cycles
 SCF Done:  E(UBHandH) =  -3026.32817845     A.U. after   14 cycles
 SCF Done:  E(ULC-wPBE) =  -3033.47196244     A.U. after   17 cycles
 SCF Done:  E(UB-P86) =  -3034.64895555     A.U. after   17 cycles
 SCF Done:  E(UmPW1LYP) =  -3034.06612146     A.U. after   13 cycles
 SCF Done:  E(UmPW1PBE) =  -3033.90476211     A.U. after   14 cycles
 SCF Done:  E(UmPW3PBE) =  -3033.67764090     A.U. after   13 cycles
 SCF Done:  E(UM11) =  -3033.82931699     A.U. after   17 cycles
 SCF Done:  E(UN12SX) =  -3033.26905117     A.U. after   17 cycles
 SCF Done:  E(UMN12SX) =  -3033.67154213     A.U. after   16 cycles
 SCF Done:  E(UB1B95) =  -3034.40109466     A.U. after   14 cycles
 Normal termination of Gaussian 16 at Tue Feb 11 23:13:17 2020.
 SCF Done:  E(UB3PW91) =  -3033.99373452     A.U. after   15 cycles
 Normal termination of Gaussian 16 at Tue Feb 11 23:28:05 2020.
 SCF Done:  E(UM06L) =  -3034.21640569     A.U. after   17 cycles
 Normal termination of Gaussian 16 at Tue Feb 11 23:46:27 2020.
 Gaussian 16:  ES64L-G16RevA.03 25-Dec-2016

                         Standard orientation:
 ---------------------------------------------------------------------
 Center     Atomic      Atomic             Coordinates (Angstroms)
 Number     Number       Type             X           Y           Z
 ---------------------------------------------------------------------
      1          8           0        0.274977    0.272749   -0.759790
      2          6           0        1.042000    1.255625   -0.621492
      3          6           0        3.244504   -0.034408    0.258726
      4          6           0        2.469562   -1.020203   -0.238177
      5          6           0        2.562891   -1.439396   -1.679286
      6         26           0       -1.474497   -0.121414    0.053934
      7         17           0       -2.105545   -1.969766   -0.904740
      8          6           0        1.578205   -1.888531    0.602858
      9         17           0       -2.569747    1.684978   -0.531273
     10         17           0       -1.246873   -0.253260    2.230809
     11          1           0        3.926142    0.462032   -0.432163
     12          1           0        2.103716   -2.826268    0.831072
     13          1           0        1.285340   -1.434630    1.549977
     14          1           0        0.671931   -2.169777    0.057206
     15          1           0        2.865570   -2.493058   -1.737846
     16          1           0        1.583842   -1.370004   -2.168670
     17          1           0        3.293277   -0.849958   -2.241379
     18          6           0        3.410713    0.342666    1.704769
     19          1           0        4.318419   -0.121122    2.114819
     20          1           0        3.531264    1.424621    1.829908
     21          1           0        2.572777    0.020710    2.328438
     22          6           0        0.973141    2.115946    0.599549
     23          1           0        1.867002    2.727994    0.723040
     24          1           0        0.110998    2.784665    0.454858
     25          1           0        0.777672    1.525151    1.495193
     26          6           0        1.755154    1.776333   -1.830683
     27          1           0        1.088368    2.535483   -2.267001
     28          1           0        2.697587    2.263791   -1.577244
     29          1           0        1.902965    0.993761   -2.573305
 ---------------------------------------------------------------------

 SCF Done:  E(UB97D3) =  -3034.63553663     A.U. after   16 cycles
 Normal termination of Gaussian 16 at Tue Feb 11 23:58:59 2020.
