 Gaussian 16, Revision A.03,

 --------------------------------
 #t pop=none jul-cc-pvdz upbe1pbe
 --------------------------------
 ------------------------
 theory_abbreviation pbe0
 ------------------------
 Symbolic Z-matrix:
 Charge =  0 Multiplicity = 6

 SCF Done:  E(UPBE1PBE) =  -3033.11162286     A.U. after   21 cycles
 Normal termination of Gaussian 16 at Tue Feb 11 13:57:30 2020.

 ---------------------------------------------------------------------
 #t pop=none jul-cc-pvdz guess=read upbe1pbe empiricaldispersion=gd3bj
 ---------------------------------------------------------------------
 -----------------------------
 theory_abbreviation pbe0_d3bj
 -----------------------------
 Symbolic Z-matrix:
 Charge =  0 Multiplicity = 6

 SCF Done:  E(UPBE1PBE) =  -3033.14748687     A.U. after    1 cycles
 Normal termination of Gaussian 16 at Tue Feb 11 13:58:39 2020.

 -----------------------------------------
 #t pop=none jul-cc-pvdz guess=read ub3lyp
 -----------------------------------------
 -------------------------
 theory_abbreviation b3lyp
 -------------------------
 Symbolic Z-matrix:
 Charge =  0 Multiplicity = 6

 SCF Done:  E(UB3LYP) =  -3034.32437922     A.U. after   15 cycles
 Normal termination of Gaussian 16 at Tue Feb 11 14:13:58 2020.

 -------------------------------------------------------------------
 #t pop=none jul-cc-pvdz guess=read ub3lyp empiricaldispersion=gd3bj
 -------------------------------------------------------------------
 ------------------------------
 theory_abbreviation b3lyp_d3bj
 ------------------------------
 Symbolic Z-matrix:
 Charge =  0 Multiplicity = 6

 SCF Done:  E(UB3LYP) =  -3034.39131310     A.U. after    1 cycles
 Normal termination of Gaussian 16 at Tue Feb 11 14:15:05 2020.

 ----------------------------------------
 #t pop=none jul-cc-pvdz guess=read ub97d
 ----------------------------------------
 ------------------------
 theory_abbreviation b97d
 ------------------------
 Symbolic Z-matrix:
 Charge =  0 Multiplicity = 6

 SCF Done:  E(UB97D) =  -3034.57674415     A.U. after   16 cycles

 ----------------------------------------------------------------
 #t pop=none jul-cc-pvdz guess=read ub97d empiricaldispersion=gd3
 ----------------------------------------------------------------
 -------------------------
 theory_abbreviation b97d3
 -------------------------
 Symbolic Z-matrix:
 Charge =  0 Multiplicity = 6

 SCF Done:  E(UB97D) =  -3034.57680143     A.U. after    1 cycles
 SCF Done:  E(UBHandHLYP) =  -3033.96484205     A.U. after   17 cycles
 SCF Done:  E(UBHandH) =  -3026.31241360     A.U. after   16 cycles
 SCF Done:  E(ULC-wPBE) =  -3033.45031271     A.U. after   18 cycles
 SCF Done:  E(UB-P86) =  -3034.63024564     A.U. after   17 cycles
 SCF Done:  E(UmPW1LYP) =  -3034.04198387     A.U. after   15 cycles
 SCF Done:  E(UmPW1PBE) =  -3033.88614910     A.U. after   15 cycles
 SCF Done:  E(UmPW3PBE) =  -3033.65875607     A.U. after   15 cycles
 SCF Done:  E(UM11) =  -3033.80533790     A.U. after   18 cycles
 SCF Done:  E(UN12SX) =  -3033.25125726     A.U. after   17 cycles
 SCF Done:  E(UMN12SX) =  -3033.64626923     A.U. after   16 cycles
 SCF Done:  E(UB1B95) =  -3034.37792368     A.U. after   16 cycles
 Normal termination of Gaussian 16 at Tue Feb 11 22:41:37 2020.
 SCF Done:  E(UB3PW91) =  -3033.97422783     A.U. after   15 cycles
 Normal termination of Gaussian 16 at Tue Feb 11 22:58:14 2020.
 SCF Done:  E(UM06L) =  -3034.19030140     A.U. after   17 cycles
 Normal termination of Gaussian 16 at Tue Feb 11 23:16:39 2020.
 Gaussian 16:  ES64L-G16RevA.03 25-Dec-2016

                         Standard orientation:
 ---------------------------------------------------------------------
 Center     Atomic      Atomic             Coordinates (Angstroms)
 Number     Number       Type             X           Y           Z
 ---------------------------------------------------------------------
      1          8           0       -0.301833   -0.102589   -0.411340
      2          6           0       -1.235555   -1.042005   -0.197200
      3          6           0       -2.517297   -0.349912    0.772669
      4          6           0       -3.074358    0.669337   -0.054628
      5          6           0       -4.258520    0.419461   -0.912544
      6         26           0        1.525210    0.170625   -0.095807
      7         17           0        1.853138    2.182065   -0.929670
      8          6           0       -2.351908    1.934869   -0.189960
      9         17           0        2.538983   -1.487749   -1.130712
     10         17           0        1.851721    0.115700    2.093537
     11          1           0       -3.201495   -1.193547    0.888482
     12          1           0       -2.816828    2.650761   -0.868889
     13          1           0       -2.120855    2.399566    0.774169
     14          1           0       -1.348343    1.619863   -0.574303
     15          1           0       -5.081477    1.042963   -0.528717
     16          1           0       -4.081869    0.757710   -1.940966
     17          1           0       -4.583273   -0.622037   -0.906472
     18          6           0       -1.901252    0.107084    2.101135
     19          1           0       -2.577487    0.794258    2.619730
     20          1           0       -1.737335   -0.750965    2.754122
     21          1           0       -0.939357    0.600399    1.952620
     22          6           0       -0.736841   -2.206884    0.673405
     23          1           0       -1.543596   -2.896933    0.936905
     24          1           0        0.007178   -2.744900    0.075994
     25          1           0       -0.239111   -1.852226    1.576053
     26          6           0       -1.812984   -1.553549   -1.520197
     27          1           0       -1.024343   -2.118936   -2.025933
     28          1           0       -2.673001   -2.215037   -1.372563
     29          1           0       -2.092651   -0.727153   -2.178269
 ---------------------------------------------------------------------

 SCF Done:  E(UB97D3) =  -3034.61131167     A.U. after   16 cycles
 Normal termination of Gaussian 16 at Tue Feb 11 23:29:14 2020.
