 Gaussian 16, Revision A.03,

 --------------------------------
 #t pop=none jul-cc-pvdz upbe1pbe
 --------------------------------
 ------------------------
 theory_abbreviation pbe0
 ------------------------
 Symbolic Z-matrix:
 Charge =  0 Multiplicity = 6

 SCF Done:  E(UPBE1PBE) =  -3033.10666808     A.U. after   21 cycles
 Normal termination of Gaussian 16 at Tue Feb 11 13:56:33 2020.

 ---------------------------------------------------------------------
 #t pop=none jul-cc-pvdz guess=read upbe1pbe empiricaldispersion=gd3bj
 ---------------------------------------------------------------------
 -----------------------------
 theory_abbreviation pbe0_d3bj
 -----------------------------
 Symbolic Z-matrix:
 Charge =  0 Multiplicity = 6

 SCF Done:  E(UPBE1PBE) =  -3033.14339579     A.U. after    1 cycles
 Normal termination of Gaussian 16 at Tue Feb 11 13:57:49 2020.

 -----------------------------------------
 #t pop=none jul-cc-pvdz guess=read ub3lyp
 -----------------------------------------
 -------------------------
 theory_abbreviation b3lyp
 -------------------------
 Symbolic Z-matrix:
 Charge =  0 Multiplicity = 6

 SCF Done:  E(UB3LYP) =  -3034.31764423     A.U. after   15 cycles
 Normal termination of Gaussian 16 at Tue Feb 11 14:13:16 2020.

 -------------------------------------------------------------------
 #t pop=none jul-cc-pvdz guess=read ub3lyp empiricaldispersion=gd3bj
 -------------------------------------------------------------------
 ------------------------------
 theory_abbreviation b3lyp_d3bj
 ------------------------------
 Symbolic Z-matrix:
 Charge =  0 Multiplicity = 6

 SCF Done:  E(UB3LYP) =  -3034.38638486     A.U. after    1 cycles
 Normal termination of Gaussian 16 at Tue Feb 11 14:14:26 2020.

 ----------------------------------------
 #t pop=none jul-cc-pvdz guess=read ub97d
 ----------------------------------------
 ------------------------
 theory_abbreviation b97d
 ------------------------
 Symbolic Z-matrix:
 Charge =  0 Multiplicity = 6

 SCF Done:  E(UB97D) =  -3034.57102400     A.U. after   17 cycles

 ----------------------------------------------------------------
 #t pop=none jul-cc-pvdz guess=read ub97d empiricaldispersion=gd3
 ----------------------------------------------------------------
 -------------------------
 theory_abbreviation b97d3
 -------------------------
 Symbolic Z-matrix:
 Charge =  0 Multiplicity = 6

 SCF Done:  E(UB97D) =  -3034.57152040     A.U. after    1 cycles
 SCF Done:  E(UBHandHLYP) =  -3033.96008569     A.U. after   16 cycles
 SCF Done:  E(UBHandH) =  -3026.31100987     A.U. after   13 cycles
 SCF Done:  E(ULC-wPBE) =  -3033.44856610     A.U. after   17 cycles
 SCF Done:  E(UB-P86) =  -3034.62564383     A.U. after   18 cycles
 SCF Done:  E(UmPW1LYP) =  -3034.03550315     A.U. after   15 cycles
 SCF Done:  E(UmPW1PBE) =  -3033.88099641     A.U. after   15 cycles
 SCF Done:  E(UmPW3PBE) =  -3033.65326285     A.U. after   14 cycles
 SCF Done:  E(UM11) =  -3033.80169501     A.U. after   18 cycles
 SCF Done:  E(UN12SX) =  -3033.24644536     A.U. after   17 cycles
 SCF Done:  E(UMN12SX) =  -3033.64261290     A.U. after   16 cycles
 SCF Done:  E(UB1B95) =  -3034.37356128     A.U. after   16 cycles
 Normal termination of Gaussian 16 at Tue Feb 11 22:51:10 2020.
 SCF Done:  E(UB3PW91) =  -3033.96848149     A.U. after   15 cycles
 Normal termination of Gaussian 16 at Tue Feb 11 23:07:36 2020.
 SCF Done:  E(UM06L) =  -3034.18580831     A.U. after   18 cycles
 Normal termination of Gaussian 16 at Tue Feb 11 23:27:14 2020.
 Gaussian 16:  ES64L-G16RevA.03 25-Dec-2016

                         Standard orientation:
 ---------------------------------------------------------------------
 Center     Atomic      Atomic             Coordinates (Angstroms)
 Number     Number       Type             X           Y           Z
 ---------------------------------------------------------------------
      1          8           0       -0.250041   -0.358686   -0.637781
      2          6           0       -1.330742   -1.131281   -0.298145
      3          6           0       -2.287784   -0.361986    0.727653
      4          6           0       -2.924014    0.720153   -0.014542
      5          6           0       -4.322798    0.607398   -0.480960
      6         26           0        1.471328    0.121763   -0.096078
      7         17           0        2.798315   -0.254343   -1.802500
      8          6           0       -2.110971    1.849425   -0.420576
      9         17           0        2.070213   -0.988940    1.718480
     10         17           0        1.269196    2.293272    0.393236
     11          1           0       -3.047931   -1.094565    1.017482
     12          1           0       -2.613068    2.579533   -1.055365
     13          1           0       -1.575178    2.330328    0.406754
     14          1           0       -1.246092    1.355127   -0.941839
     15          1           0       -4.927377    1.241972    0.190039
     16          1           0       -4.452796    1.021087   -1.486838
     17          1           0       -4.715323   -0.409199   -0.421508
     18          6           0       -1.513283    0.115453    1.973272
     19          1           0       -2.180557    0.670539    2.639924
     20          1           0       -1.122969   -0.740805    2.523607
     21          1           0       -0.672889    0.756765    1.709089
     22          6           0       -0.904862   -2.435311    0.412208
     23          1           0       -1.776797   -3.032507    0.697426
     24          1           0       -0.302221   -3.010441   -0.296712
     25          1           0       -0.285782   -2.242089    1.287141
     26          6           0       -2.088965   -1.495929   -1.590972
     27          1           0       -1.434858   -2.117380   -2.207505
     28          1           0       -3.008289   -2.056475   -1.386541
     29          1           0       -2.332853   -0.605598   -2.179199
 ---------------------------------------------------------------------

 SCF Done:  E(UB97D3) =  -3034.60570242     A.U. after   17 cycles
 Normal termination of Gaussian 16 at Tue Feb 11 23:40:53 2020.
