 Gaussian 16, Revision A.03,

 --------------------------------
 #t pop=none jul-cc-pvdz upbe1pbe
 --------------------------------
 ------------------------
 theory_abbreviation pbe0
 ------------------------
 Symbolic Z-matrix:
 Charge =  0 Multiplicity = 6

 SCF Done:  E(UPBE1PBE) =  -3033.11892916     A.U. after   20 cycles
 Normal termination of Gaussian 16 at Tue Feb 11 13:56:13 2020.

 ---------------------------------------------------------------------
 #t pop=none jul-cc-pvdz guess=read upbe1pbe empiricaldispersion=gd3bj
 ---------------------------------------------------------------------
 -----------------------------
 theory_abbreviation pbe0_d3bj
 -----------------------------
 Symbolic Z-matrix:
 Charge =  0 Multiplicity = 6

 SCF Done:  E(UPBE1PBE) =  -3033.15590822     A.U. after    1 cycles
 Normal termination of Gaussian 16 at Tue Feb 11 13:57:25 2020.

 -----------------------------------------
 #t pop=none jul-cc-pvdz guess=read ub3lyp
 -----------------------------------------
 -------------------------
 theory_abbreviation b3lyp
 -------------------------
 Symbolic Z-matrix:
 Charge =  0 Multiplicity = 6

 SCF Done:  E(UB3LYP) =  -3034.33158772     A.U. after   13 cycles
 Normal termination of Gaussian 16 at Tue Feb 11 14:11:22 2020.

 -------------------------------------------------------------------
 #t pop=none jul-cc-pvdz guess=read ub3lyp empiricaldispersion=gd3bj
 -------------------------------------------------------------------
 ------------------------------
 theory_abbreviation b3lyp_d3bj
 ------------------------------
 Symbolic Z-matrix:
 Charge =  0 Multiplicity = 6

 SCF Done:  E(UB3LYP) =  -3034.40042261     A.U. after    1 cycles
 Normal termination of Gaussian 16 at Tue Feb 11 14:12:35 2020.

 ----------------------------------------
 #t pop=none jul-cc-pvdz guess=read ub97d
 ----------------------------------------
 ------------------------
 theory_abbreviation b97d
 ------------------------
 Symbolic Z-matrix:
 Charge =  0 Multiplicity = 6

 SCF Done:  E(UB97D) =  -3034.58142236     A.U. after   16 cycles

 ----------------------------------------------------------------
 #t pop=none jul-cc-pvdz guess=read ub97d empiricaldispersion=gd3
 ----------------------------------------------------------------
 -------------------------
 theory_abbreviation b97d3
 -------------------------
 Symbolic Z-matrix:
 Charge =  0 Multiplicity = 6

 SCF Done:  E(UB97D) =  -3034.58237272     A.U. after    2 cycles
 SCF Done:  E(UBHandHLYP) =  -3033.97500539     A.U. after   16 cycles
 SCF Done:  E(UBHandH) =  -3026.32100437     A.U. after   14 cycles
 SCF Done:  E(ULC-wPBE) =  -3033.46469851     A.U. after   17 cycles
 SCF Done:  E(UB-P86) =  -3034.63778370     A.U. after   17 cycles
 SCF Done:  E(UmPW1LYP) =  -3034.04994800     A.U. after   14 cycles
 SCF Done:  E(UmPW1PBE) =  -3033.89339968     A.U. after   14 cycles
 SCF Done:  E(UmPW3PBE) =  -3033.66550915     A.U. after   14 cycles
 SCF Done:  E(UM11) =  -3033.81378204     A.U. after   16 cycles
 SCF Done:  E(UN12SX) =  -3033.25907984     A.U. after   16 cycles
 SCF Done:  E(UMN12SX) =  -3033.65449959     A.U. after   16 cycles
 SCF Done:  E(UB1B95) =  -3034.38488972     A.U. after   15 cycles
 Normal termination of Gaussian 16 at Tue Feb 11 22:43:52 2020.
 SCF Done:  E(UB3PW91) =  -3033.98090014     A.U. after   14 cycles
 Normal termination of Gaussian 16 at Tue Feb 11 22:59:26 2020.
 SCF Done:  E(UM06L) =  -3034.19595825     A.U. after   17 cycles
 Normal termination of Gaussian 16 at Tue Feb 11 23:18:24 2020.
 Gaussian 16:  ES64L-G16RevA.03 25-Dec-2016

                         Standard orientation:
 ---------------------------------------------------------------------
 Center     Atomic      Atomic             Coordinates (Angstroms)
 Number     Number       Type             X           Y           Z
 ---------------------------------------------------------------------
      1          8           0       -0.389710   -0.215018   -0.559576
      2          6           0       -1.454047   -1.181300   -0.344497
      3          6           0       -2.735764   -0.145416   -0.262958
      4          6           0       -1.951945    1.154161   -0.251783
      5          6           0       -1.845071    1.953273   -1.493842
      6         26           0        1.379232    0.029478    0.021435
      7         17           0        1.826063    2.018949   -0.845812
      8          6           0       -1.585841    1.808559    1.025271
      9         17           0        2.517555   -1.687971   -0.725421
     10         17           0        1.358298    0.153462    2.233253
     11          1           0       -3.273875   -0.214782   -1.213114
     12          1           0       -2.464024    2.395597    1.341454
     13          1           0       -1.356180    1.097106    1.818560
     14          1           0       -0.747083    2.495903    0.894623
     15          1           0       -2.634262    2.722678   -1.455363
     16          1           0       -0.879451    2.465619   -1.541079
     17          1           0       -1.996252    1.347068   -2.387895
     18          6           0       -3.715971   -0.346782    0.889039
     19          1           0       -4.508375    0.410064    0.868674
     20          1           0       -4.195266   -1.325814    0.794627
     21          1           0       -3.230141   -0.306148    1.866576
     22          6           0       -1.221687   -1.974917    0.930137
     23          1           0       -2.042781   -2.676287    1.109805
     24          1           0       -0.298371   -2.554360    0.821200
     25          1           0       -1.102313   -1.330844    1.803355
     26          6           0       -1.539018   -2.081502   -1.565380
     27          1           0       -0.605339   -2.645283   -1.663435
     28          1           0       -2.370182   -2.790202   -1.474226
     29          1           0       -1.674965   -1.488508   -2.474729
 ---------------------------------------------------------------------

 SCF Done:  E(UB97D3) =  -3034.61785079     A.U. after   16 cycles
 Normal termination of Gaussian 16 at Tue Feb 11 23:31:13 2020.
