 Gaussian 16, Revision A.03,

 --------------------------------
 #t pop=none jul-cc-pvdz upbe1pbe
 --------------------------------
 ------------------------
 theory_abbreviation pbe0
 ------------------------
 Symbolic Z-matrix:
 Charge =  0 Multiplicity = 6

 SCF Done:  E(UPBE1PBE) =  -3033.12421484     A.U. after   21 cycles
 Normal termination of Gaussian 16 at Tue Feb 11 13:59:37 2020.

 ---------------------------------------------------------------------
 #t pop=none jul-cc-pvdz guess=read upbe1pbe empiricaldispersion=gd3bj
 ---------------------------------------------------------------------
 -----------------------------
 theory_abbreviation pbe0_d3bj
 -----------------------------
 Symbolic Z-matrix:
 Charge =  0 Multiplicity = 6

 SCF Done:  E(UPBE1PBE) =  -3033.16124828     A.U. after    1 cycles
 Normal termination of Gaussian 16 at Tue Feb 11 14:00:47 2020.

 -----------------------------------------
 #t pop=none jul-cc-pvdz guess=read ub3lyp
 -----------------------------------------
 -------------------------
 theory_abbreviation b3lyp
 -------------------------
 Symbolic Z-matrix:
 Charge =  0 Multiplicity = 6

 SCF Done:  E(UB3LYP) =  -3034.34083236     A.U. after   13 cycles
 Normal termination of Gaussian 16 at Tue Feb 11 14:14:26 2020.

 -------------------------------------------------------------------
 #t pop=none jul-cc-pvdz guess=read ub3lyp empiricaldispersion=gd3bj
 -------------------------------------------------------------------
 ------------------------------
 theory_abbreviation b3lyp_d3bj
 ------------------------------
 Symbolic Z-matrix:
 Charge =  0 Multiplicity = 6

 SCF Done:  E(UB3LYP) =  -3034.40969294     A.U. after    1 cycles
 Normal termination of Gaussian 16 at Tue Feb 11 14:15:36 2020.

 ----------------------------------------
 #t pop=none jul-cc-pvdz guess=read ub97d
 ----------------------------------------
 ------------------------
 theory_abbreviation b97d
 ------------------------
 Symbolic Z-matrix:
 Charge =  0 Multiplicity = 6

 SCF Done:  E(UB97D) =  -3034.59398824     A.U. after   15 cycles

 ----------------------------------------------------------------
 #t pop=none jul-cc-pvdz guess=read ub97d empiricaldispersion=gd3
 ----------------------------------------------------------------
 -------------------------
 theory_abbreviation b97d3
 -------------------------
 Symbolic Z-matrix:
 Charge =  0 Multiplicity = 6

 SCF Done:  E(UB97D) =  -3034.59499624     A.U. after    1 cycles
 SCF Done:  E(UBHandHLYP) =  -3033.98103928     A.U. after   18 cycles
 SCF Done:  E(UBHandH) =  -3026.32212529     A.U. after   16 cycles
 SCF Done:  E(ULC-wPBE) =  -3033.46333593     A.U. after   19 cycles
 SCF Done:  E(UB-P86) =  -3034.64451387     A.U. after   16 cycles
 SCF Done:  E(UmPW1LYP) =  -3034.05884868     A.U. after   15 cycles
 SCF Done:  E(UmPW1PBE) =  -3033.89869952     A.U. after   16 cycles
 SCF Done:  E(UmPW3PBE) =  -3033.67172480     A.U. after   13 cycles
 SCF Done:  E(UM11) =  -3033.82101981     A.U. after   19 cycles
 SCF Done:  E(UN12SX) =  -3033.26315231     A.U. after   18 cycles
 SCF Done:  E(UMN12SX) =  -3033.66307721     A.U. after   16 cycles
 SCF Done:  E(UB1B95) =  -3034.39354452     A.U. after   14 cycles
 Normal termination of Gaussian 16 at Tue Feb 11 22:57:19 2020.
 SCF Done:  E(UB3PW91) =  -3033.98759069     A.U. after   16 cycles
 Normal termination of Gaussian 16 at Tue Feb 11 23:13:46 2020.
 SCF Done:  E(UM06L) =  -3034.20792449     A.U. after   18 cycles
 Normal termination of Gaussian 16 at Tue Feb 11 23:33:30 2020.
 Gaussian 16:  ES64L-G16RevA.03 25-Dec-2016

                         Standard orientation:
 ---------------------------------------------------------------------
 Center     Atomic      Atomic             Coordinates (Angstroms)
 Number     Number       Type             X           Y           Z
 ---------------------------------------------------------------------
      1          8           0       -0.236949   -0.290501   -0.792535
      2          6           0       -1.104894   -1.204632   -0.613156
      3          6           0       -2.830898   -0.296211    0.605730
      4          6           0       -2.727899    0.886643   -0.063151
      5          6           0       -3.455657    1.134287   -1.350545
      6         26           0        1.480180    0.161108   -0.025957
      7         17           0        2.001609    2.049786   -0.989126
      8          6           0       -1.826436    1.992632    0.379096
      9         17           0        2.714740   -1.567281   -0.559825
     10         17           0        1.209077    0.357127    2.150828
     11          1           0       -3.556650   -1.011146    0.220626
     12          1           0       -2.346649    2.956905    0.336826
     13          1           0       -1.415234    1.853004    1.378418
     14          1           0       -0.983816    2.064356   -0.324829
     15          1           0       -4.115965    2.003262   -1.231380
     16          1           0       -2.753654    1.390826   -2.155282
     17          1           0       -4.068052    0.284759   -1.661364
     18          6           0       -2.461600   -0.474265    2.061917
     19          1           0       -3.176180    0.075789    2.687230
     20          1           0       -2.518790   -1.523167    2.360534
     21          1           0       -1.462058   -0.107789    2.303435
     22          6           0       -0.819408   -2.285058    0.397591
     23          1           0       -1.691111   -2.906645    0.607000
     24          1           0       -0.046181   -2.913488   -0.067273
     25          1           0       -0.399809   -1.886606    1.320726
     26          6           0       -1.884350   -1.618578   -1.837427
     27          1           0       -1.225119   -2.301654   -2.390673
     28          1           0       -2.802031   -2.157192   -1.596106
     29          1           0       -2.093176   -0.768667   -2.484960
 ---------------------------------------------------------------------

 SCF Done:  E(UB97D3) =  -3034.63034343     A.U. after   15 cycles
 Normal termination of Gaussian 16 at Tue Feb 11 23:45:19 2020.
