 Gaussian 16, Revision A.03,

 --------------------------------
 #t pop=none jul-cc-pvdz upbe1pbe
 --------------------------------
 ------------------------
 theory_abbreviation pbe0
 ------------------------
 Symbolic Z-matrix:
 Charge =  0 Multiplicity = 6

 SCF Done:  E(UPBE1PBE) =  -3033.12922802     A.U. after   21 cycles
 Normal termination of Gaussian 16 at Wed Feb 12 07:01:36 2020.

 ---------------------------------------------------------------------
 #t pop=none jul-cc-pvdz guess=read upbe1pbe empiricaldispersion=gd3bj
 ---------------------------------------------------------------------
 -----------------------------
 theory_abbreviation pbe0_d3bj
 -----------------------------
 Symbolic Z-matrix:
 Charge =  0 Multiplicity = 6

 SCF Done:  E(UPBE1PBE) =  -3033.16566774     A.U. after    1 cycles
 Normal termination of Gaussian 16 at Wed Feb 12 07:02:43 2020.

 -----------------------------------------
 #t pop=none jul-cc-pvdz guess=read ub3lyp
 -----------------------------------------
 -------------------------
 theory_abbreviation b3lyp
 -------------------------
 Symbolic Z-matrix:
 Charge =  0 Multiplicity = 6

 SCF Done:  E(UB3LYP) =  -3034.34707626     A.U. after   13 cycles
 Normal termination of Gaussian 16 at Wed Feb 12 07:15:18 2020.

 -------------------------------------------------------------------
 #t pop=none jul-cc-pvdz guess=read ub3lyp empiricaldispersion=gd3bj
 -------------------------------------------------------------------
 ------------------------------
 theory_abbreviation b3lyp_d3bj
 ------------------------------
 Symbolic Z-matrix:
 Charge =  0 Multiplicity = 6

 SCF Done:  E(UB3LYP) =  -3034.41466918     A.U. after    1 cycles
 Normal termination of Gaussian 16 at Wed Feb 12 07:16:30 2020.

 ----------------------------------------
 #t pop=none jul-cc-pvdz guess=read ub97d
 ----------------------------------------
 ------------------------
 theory_abbreviation b97d
 ------------------------
 Symbolic Z-matrix:
 Charge =  0 Multiplicity = 6

 SCF Done:  E(UB97D) =  -3034.59880645     A.U. after   15 cycles

 ----------------------------------------------------------------
 #t pop=none jul-cc-pvdz guess=read ub97d empiricaldispersion=gd3
 ----------------------------------------------------------------
 -------------------------
 theory_abbreviation b97d3
 -------------------------
 Symbolic Z-matrix:
 Charge =  0 Multiplicity = 6

 SCF Done:  E(UB97D) =  -3034.59967725     A.U. after    1 cycles
 SCF Done:  E(UBHandHLYP) =  -3033.98756254     A.U. after   18 cycles
 SCF Done:  E(UBHandH) =  -3026.32558746     A.U. after   15 cycles
 SCF Done:  E(ULC-wPBE) =  -3033.46847221     A.U. after   19 cycles
 SCF Done:  E(UB-P86) =  -3034.64830728     A.U. after   16 cycles
 SCF Done:  E(UmPW1LYP) =  -3034.06516072     A.U. after   14 cycles
 SCF Done:  E(UmPW1PBE) =  -3033.90378769     A.U. after   14 cycles
 SCF Done:  E(UmPW3PBE) =  -3033.67687768     A.U. after   13 cycles
 SCF Done:  E(UM11) =  -3033.82583935     A.U. after   17 cycles
 SCF Done:  E(UN12SX) =  -3033.26797133     A.U. after   17 cycles
 SCF Done:  E(UMN12SX) =  -3033.66851282     A.U. after   16 cycles
 SCF Done:  E(UB1B95) =  -3034.39881864     A.U. after   14 cycles
 Normal termination of Gaussian 16 at Wed Feb 12 15:25:13 2020.
 SCF Done:  E(UB3PW91) =  -3033.99297815     A.U. after   13 cycles
 Normal termination of Gaussian 16 at Wed Feb 12 15:37:52 2020.
 SCF Done:  E(UM06L) =  -3034.21366332     A.U. after   18 cycles
 Normal termination of Gaussian 16 at Wed Feb 12 15:56:53 2020.
 Gaussian 16:  ES64L-G16RevA.03 25-Dec-2016

                         Standard orientation:
 ---------------------------------------------------------------------
 Center     Atomic      Atomic             Coordinates (Angstroms)
 Number     Number       Type             X           Y           Z
 ---------------------------------------------------------------------
      1          8           0        0.179257    0.359843   -0.835236
      2          6           0        1.032869    1.271318   -0.637780
      3          6           0        2.888171    0.290910    0.626802
      4          6           0        2.809044   -0.867791   -0.075540
      5          6           0        3.537713   -1.057635   -1.374489
      6         26           0       -1.508979   -0.177523   -0.023641
      7         17           0       -2.009783   -2.037602   -1.042282
      8          6           0        1.930767   -2.010588    0.332916
      9         17           0       -2.783309    1.545895   -0.464307
     10         17           0       -1.167506   -0.439804    2.131279
     11          1           0        3.580406    1.044826    0.253342
     12          1           0        2.475252   -2.960801    0.274754
     13          1           0        1.513333   -1.905153    1.334323
     14          1           0        1.091297   -2.090079   -0.374049
     15          1           0        4.222408   -1.911759   -1.290192
     16          1           0        2.840284   -1.303601   -2.186855
     17          1           0        4.125949   -0.181668   -1.659440
     18          6           0        2.486004    0.444187    2.075626
     19          1           0        3.205320   -0.085955    2.713200
     20          1           0        2.501826    1.491701    2.385324
     21          1           0        1.495020    0.042341    2.295728
     22          6           0        0.783200    2.294667    0.432842
     23          1           0        1.665350    2.896568    0.653325
     24          1           0        0.003497    2.954053    0.023635
     25          1           0        0.382498    1.847681    1.342375
     26          6           0        1.857304    1.685580   -1.826250
     27          1           0        1.230762    2.390366   -2.391507
     28          1           0        2.775929    2.202096   -1.545990
     29          1           0        2.069971    0.838040   -2.475918
 ---------------------------------------------------------------------

 SCF Done:  E(UB97D3) =  -3034.63507781     A.U. after   15 cycles
 Normal termination of Gaussian 16 at Wed Feb 12 16:08:27 2020.
