 Gaussian 16, Revision A.03,

 --------------------------------
 #t pop=none jul-cc-pvdz upbe1pbe
 --------------------------------
 ------------------------
 theory_abbreviation pbe0
 ------------------------
 Symbolic Z-matrix:
 Charge =  0 Multiplicity = 6

 SCF Done:  E(UPBE1PBE) =  -3033.10890553     A.U. after   21 cycles
 Normal termination of Gaussian 16 at Wed Feb 12 07:04:20 2020.

 ---------------------------------------------------------------------
 #t pop=none jul-cc-pvdz guess=read upbe1pbe empiricaldispersion=gd3bj
 ---------------------------------------------------------------------
 -----------------------------
 theory_abbreviation pbe0_d3bj
 -----------------------------
 Symbolic Z-matrix:
 Charge =  0 Multiplicity = 6

 SCF Done:  E(UPBE1PBE) =  -3033.14539732     A.U. after    1 cycles
 Normal termination of Gaussian 16 at Wed Feb 12 07:05:46 2020.

 -----------------------------------------
 #t pop=none jul-cc-pvdz guess=read ub3lyp
 -----------------------------------------
 -------------------------
 theory_abbreviation b3lyp
 -------------------------
 Symbolic Z-matrix:
 Charge =  0 Multiplicity = 6

 SCF Done:  E(UB3LYP) =  -3034.32096898     A.U. after   15 cycles
 Normal termination of Gaussian 16 at Wed Feb 12 07:22:09 2020.

 -------------------------------------------------------------------
 #t pop=none jul-cc-pvdz guess=read ub3lyp empiricaldispersion=gd3bj
 -------------------------------------------------------------------
 ------------------------------
 theory_abbreviation b3lyp_d3bj
 ------------------------------
 Symbolic Z-matrix:
 Charge =  0 Multiplicity = 6

 SCF Done:  E(UB3LYP) =  -3034.38902948     A.U. after    1 cycles
 Normal termination of Gaussian 16 at Wed Feb 12 07:24:01 2020.

 ----------------------------------------
 #t pop=none jul-cc-pvdz guess=read ub97d
 ----------------------------------------
 ------------------------
 theory_abbreviation b97d
 ------------------------
 Symbolic Z-matrix:
 Charge =  0 Multiplicity = 6

 SCF Done:  E(UB97D) =  -3034.57276742     A.U. after   16 cycles

 ----------------------------------------------------------------
 #t pop=none jul-cc-pvdz guess=read ub97d empiricaldispersion=gd3
 ----------------------------------------------------------------
 -------------------------
 theory_abbreviation b97d3
 -------------------------
 Symbolic Z-matrix:
 Charge =  0 Multiplicity = 6

 SCF Done:  E(UB97D) =  -3034.57327791     A.U. after    3 cycles
 SCF Done:  E(UBHandHLYP) =  -3033.96298336     A.U. after   17 cycles
 SCF Done:  E(UBHandH) =  -3026.31214581     A.U. after   16 cycles
 SCF Done:  E(ULC-wPBE) =  -3033.44910142     A.U. after   18 cycles
 SCF Done:  E(UB-P86) =  -3034.62661964     A.U. after   17 cycles
 SCF Done:  E(UmPW1LYP) =  -3034.03895180     A.U. after   15 cycles
 SCF Done:  E(UmPW1PBE) =  -3033.88330147     A.U. after   15 cycles
 SCF Done:  E(UmPW3PBE) =  -3033.65563699     A.U. after   15 cycles
 SCF Done:  E(UM11) =  -3033.80460443     A.U. after   19 cycles
 SCF Done:  E(UN12SX) =  -3033.24868997     A.U. after   17 cycles
 SCF Done:  E(UMN12SX) =  -3033.64466752     A.U. after   16 cycles
 SCF Done:  E(UB1B95) =  -3034.37582027     A.U. after   16 cycles
 Normal termination of Gaussian 16 at Wed Feb 12 16:44:50 2020.
 SCF Done:  E(UB3PW91) =  -3033.97094512     A.U. after   15 cycles
 Normal termination of Gaussian 16 at Wed Feb 12 17:01:16 2020.
 SCF Done:  E(UM06L) =  -3034.18789784     A.U. after   17 cycles
 Normal termination of Gaussian 16 at Wed Feb 12 17:20:56 2020.
 Gaussian 16:  ES64L-G16RevA.03 25-Dec-2016

                         Standard orientation:
 ---------------------------------------------------------------------
 Center     Atomic      Atomic             Coordinates (Angstroms)
 Number     Number       Type             X           Y           Z
 ---------------------------------------------------------------------
      1          8           0       -0.355419   -0.125971   -0.496933
      2          6           0       -1.235844   -1.115769   -0.350886
      3          6           0       -2.589692   -0.433444    0.619436
      4          6           0       -2.749790    0.790510   -0.064415
      5          6           0       -3.647965    0.904213   -1.244378
      6         26           0        1.444007    0.165645   -0.065798
      7         17           0        1.735654    2.224826   -0.807290
      8          6           0       -1.981352    1.983620    0.298696
      9         17           0        2.601867   -1.414005   -1.064890
     10         17           0        1.593433    0.075003    2.145729
     11          1           0       -3.383209   -1.150552    0.401988
     12          1           0       -2.367453    2.899275   -0.153288
     13          1           0       -1.832141    2.100806    1.373953
     14          1           0       -0.972700    1.791046   -0.123770
     15          1           0       -4.442790    1.620246   -0.988479
     16          1           0       -3.112246    1.342486   -2.096559
     17          1           0       -4.110149   -0.039302   -1.534820
     18          6           0       -2.186755   -0.380271    2.090557
     19          1           0       -2.886923    0.251683    2.647790
     20          1           0       -2.221041   -1.377660    2.531457
     21          1           0       -1.177483    0.015225    2.226745
     22          6           0       -0.747544   -2.298396    0.490318
     23          1           0       -1.546690   -3.018525    0.688343
     24          1           0        0.031152   -2.793455   -0.101261
     25          1           0       -0.293924   -1.976390    1.426980
     26          6           0       -1.785378   -1.593006   -1.696167
     27          1           0       -0.980525   -2.152828   -2.183693
     28          1           0       -2.649007   -2.256433   -1.587131
     29          1           0       -2.036012   -0.758384   -2.351348
 ---------------------------------------------------------------------

 SCF Done:  E(UB97D3) =  -3034.60760385     A.U. after   16 cycles
 Normal termination of Gaussian 16 at Wed Feb 12 17:34:28 2020.
