 Gaussian 16, Revision A.03,

 --------------------------------
 #t pop=none jul-cc-pvdz upbe1pbe
 --------------------------------
 ------------------------
 theory_abbreviation pbe0
 ------------------------
 Symbolic Z-matrix:
 Charge =  0 Multiplicity = 6

 SCF Done:  E(UPBE1PBE) =  -3033.11377020     A.U. after   21 cycles
 Normal termination of Gaussian 16 at Tue Feb 11 23:38:34 2020.

 ---------------------------------------------------------------------
 #t pop=none jul-cc-pvdz guess=read upbe1pbe empiricaldispersion=gd3bj
 ---------------------------------------------------------------------
 -----------------------------
 theory_abbreviation pbe0_d3bj
 -----------------------------
 Symbolic Z-matrix:
 Charge =  0 Multiplicity = 6

 SCF Done:  E(UPBE1PBE) =  -3033.15157343     A.U. after    1 cycles
 Normal termination of Gaussian 16 at Tue Feb 11 23:39:42 2020.

 -----------------------------------------
 #t pop=none jul-cc-pvdz guess=read ub3lyp
 -----------------------------------------
 -------------------------
 theory_abbreviation b3lyp
 -------------------------
 Symbolic Z-matrix:
 Charge =  0 Multiplicity = 6

 SCF Done:  E(UB3LYP) =  -3034.32908833     A.U. after   14 cycles
 Normal termination of Gaussian 16 at Tue Feb 11 23:53:37 2020.

 -------------------------------------------------------------------
 #t pop=none jul-cc-pvdz guess=read ub3lyp empiricaldispersion=gd3bj
 -------------------------------------------------------------------
 ------------------------------
 theory_abbreviation b3lyp_d3bj
 ------------------------------
 Symbolic Z-matrix:
 Charge =  0 Multiplicity = 6

 SCF Done:  E(UB3LYP) =  -3034.39947542     A.U. after    1 cycles
 Normal termination of Gaussian 16 at Tue Feb 11 23:54:44 2020.

 ----------------------------------------
 #t pop=none jul-cc-pvdz guess=read ub97d
 ----------------------------------------
 ------------------------
 theory_abbreviation b97d
 ------------------------
 Symbolic Z-matrix:
 Charge =  0 Multiplicity = 6

 SCF Done:  E(UB97D) =  -3034.58183898     A.U. after   15 cycles

 ----------------------------------------------------------------
 #t pop=none jul-cc-pvdz guess=read ub97d empiricaldispersion=gd3
 ----------------------------------------------------------------
 -------------------------
 theory_abbreviation b97d3
 -------------------------
 Symbolic Z-matrix:
 Charge =  0 Multiplicity = 6

 SCF Done:  E(UB97D) =  -3034.58390248     A.U. after    1 cycles
 SCF Done:  E(UBHandHLYP) =  -3033.97093196     A.U. after   16 cycles
 SCF Done:  E(UBHandH) =  -3026.31456518     A.U. after   16 cycles
 SCF Done:  E(ULC-wPBE) =  -3033.45481228     A.U. after   19 cycles
 SCF Done:  E(UB-P86) =  -3034.63440838     A.U. after   16 cycles
 SCF Done:  E(UmPW1LYP) =  -3034.04727234     A.U. after   14 cycles
 SCF Done:  E(UmPW1PBE) =  -3033.88825698     A.U. after   15 cycles
 SCF Done:  E(UmPW3PBE) =  -3033.66097379     A.U. after   13 cycles
 SCF Done:  E(UM11) =  -3033.81178717     A.U. after   16 cycles
 SCF Done:  E(UN12SX) =  -3033.25269507     A.U. after   17 cycles
 SCF Done:  E(UMN12SX) =  -3033.65406338     A.U. after   16 cycles
 SCF Done:  E(UB1B95) =  -3034.38431589     A.U. after   14 cycles
 Normal termination of Gaussian 16 at Wed Feb 12 07:55:39 2020.
 SCF Done:  E(UB3PW91) =  -3033.97666164     A.U. after   15 cycles
 Normal termination of Gaussian 16 at Wed Feb 12 08:10:32 2020.
 SCF Done:  E(UM06L) =  -3034.19846152     A.U. after   17 cycles
 Normal termination of Gaussian 16 at Wed Feb 12 08:29:02 2020.
 Gaussian 16:  ES64L-G16RevA.03 25-Dec-2016

                         Standard orientation:
 ---------------------------------------------------------------------
 Center     Atomic      Atomic             Coordinates (Angstroms)
 Number     Number       Type             X           Y           Z
 ---------------------------------------------------------------------
      1          8           0       -0.326475   -0.134614   -0.618883
      2          6           0       -1.165538   -1.087981   -0.549221
      3          6           0       -3.196612    0.040380    0.052060
      4          6           0       -2.320353    1.042063   -0.215899
      5          6           0       -2.227274    1.652270   -1.582854
      6         26           0        1.466646    0.076420    0.058669
      7         17           0        2.095624    1.985442   -0.797353
      8          6           0       -1.556515    1.765286    0.854502
      9         17           0        2.437849   -1.730206   -0.727846
     10         17           0        1.384405    0.065305    2.256096
     11          1           0       -3.797234   -0.329023   -0.777265
     12          1           0       -2.192116    2.573445    1.242949
     13          1           0       -1.278014    1.132648    1.698392
     14          1           0       -0.651652    2.229153    0.454488
     15          1           0       -2.555825    2.698120   -1.517176
     16          1           0       -1.191625    1.667230   -1.936513
     17          1           0       -2.864051    1.149220   -2.315272
     18          6           0       -3.641225   -0.410165    1.416421
     19          1           0       -4.566703    0.113690    1.692097
     20          1           0       -3.868904   -1.480956    1.439132
     21          1           0       -2.906547   -0.200264    2.197300
     22          6           0       -1.135058   -2.005332    0.635475
     23          1           0       -2.025510   -2.629816    0.706955
     24          1           0       -0.265869   -2.661148    0.474078
     25          1           0       -0.958977   -1.463337    1.564901
     26          6           0       -1.697855   -1.630722   -1.844467
     27          1           0       -0.904167   -2.288248   -2.229496
     28          1           0       -2.603625   -2.224366   -1.711663
     29          1           0       -1.851529   -0.840354   -2.578581
 ---------------------------------------------------------------------

 SCF Done:  E(UB97D3) =  -3034.61961868     A.U. after   17 cycles
 Normal termination of Gaussian 16 at Wed Feb 12 08:42:28 2020.
