 Gaussian 16, Revision A.03,

 --------------------------------
 #t pop=none jul-cc-pvdz upbe1pbe
 --------------------------------
 ------------------------
 theory_abbreviation pbe0
 ------------------------
 Symbolic Z-matrix:
 Charge =  0 Multiplicity = 6

 SCF Done:  E(UPBE1PBE) =  -3033.12390260     A.U. after   21 cycles
 Normal termination of Gaussian 16 at Tue Feb 11 14:00:11 2020.

 ---------------------------------------------------------------------
 #t pop=none jul-cc-pvdz guess=read upbe1pbe empiricaldispersion=gd3bj
 ---------------------------------------------------------------------
 -----------------------------
 theory_abbreviation pbe0_d3bj
 -----------------------------
 Symbolic Z-matrix:
 Charge =  0 Multiplicity = 6

 SCF Done:  E(UPBE1PBE) =  -3033.16131513     A.U. after    1 cycles
 Normal termination of Gaussian 16 at Tue Feb 11 14:01:22 2020.

 -----------------------------------------
 #t pop=none jul-cc-pvdz guess=read ub3lyp
 -----------------------------------------
 -------------------------
 theory_abbreviation b3lyp
 -------------------------
 Symbolic Z-matrix:
 Charge =  0 Multiplicity = 6

 SCF Done:  E(UB3LYP) =  -3034.34024635     A.U. after   13 cycles
 Normal termination of Gaussian 16 at Tue Feb 11 14:15:16 2020.

 -------------------------------------------------------------------
 #t pop=none jul-cc-pvdz guess=read ub3lyp empiricaldispersion=gd3bj
 -------------------------------------------------------------------
 ------------------------------
 theory_abbreviation b3lyp_d3bj
 ------------------------------
 Symbolic Z-matrix:
 Charge =  0 Multiplicity = 6

 SCF Done:  E(UB3LYP) =  -3034.40982295     A.U. after    1 cycles
 Normal termination of Gaussian 16 at Tue Feb 11 14:16:26 2020.

 ----------------------------------------
 #t pop=none jul-cc-pvdz guess=read ub97d
 ----------------------------------------
 ------------------------
 theory_abbreviation b97d
 ------------------------
 Symbolic Z-matrix:
 Charge =  0 Multiplicity = 6

 SCF Done:  E(UB97D) =  -3034.59295884     A.U. after   15 cycles

 ----------------------------------------------------------------
 #t pop=none jul-cc-pvdz guess=read ub97d empiricaldispersion=gd3
 ----------------------------------------------------------------
 -------------------------
 theory_abbreviation b97d3
 -------------------------
 Symbolic Z-matrix:
 Charge =  0 Multiplicity = 6

 SCF Done:  E(UB97D) =  -3034.59453991     A.U. after    1 cycles
 SCF Done:  E(UBHandHLYP) =  -3033.98184082     A.U. after   18 cycles
 SCF Done:  E(UBHandH) =  -3026.32334146     A.U. after   14 cycles
 SCF Done:  E(ULC-wPBE) =  -3033.46479073     A.U. after   19 cycles
 SCF Done:  E(UB-P86) =  -3034.64393110     A.U. after   16 cycles
 SCF Done:  E(UmPW1LYP) =  -3034.05846715     A.U. after   13 cycles
 SCF Done:  E(UmPW1PBE) =  -3033.89835765     A.U. after   13 cycles
 SCF Done:  E(UmPW3PBE) =  -3033.67119935     A.U. after   13 cycles
 SCF Done:  E(UM11) =  -3033.82188907     A.U. after   16 cycles
 SCF Done:  E(UN12SX) =  -3033.26275542     A.U. after   17 cycles
 SCF Done:  E(UMN12SX) =  -3033.66412127     A.U. after   16 cycles
 SCF Done:  E(UB1B95) =  -3034.39414027     A.U. after   14 cycles
 Normal termination of Gaussian 16 at Tue Feb 11 22:37:17 2020.
 SCF Done:  E(UB3PW91) =  -3033.98704693     A.U. after   13 cycles
 Normal termination of Gaussian 16 at Tue Feb 11 22:51:03 2020.
 SCF Done:  E(UM06L) =  -3034.20920543     A.U. after   17 cycles
 Normal termination of Gaussian 16 at Tue Feb 11 23:11:14 2020.
 Gaussian 16:  ES64L-G16RevA.03 25-Dec-2016

                         Standard orientation:
 ---------------------------------------------------------------------
 Center     Atomic      Atomic             Coordinates (Angstroms)
 Number     Number       Type             X           Y           Z
 ---------------------------------------------------------------------
      1          8           0       -0.285220   -0.210913   -0.752876
      2          6           0       -1.123852   -1.151238   -0.628020
      3          6           0       -3.125136   -0.049515    0.257171
      4          6           0       -2.441437    1.029519   -0.192043
      5          6           0       -2.574530    1.518562   -1.604057
      6         26           0        1.462138    0.102923    0.043097
      7         17           0        2.101303    1.997757   -0.827567
      8          6           0       -1.575593    1.885794    0.681173
      9         17           0        2.551990   -1.682422   -0.615669
     10         17           0        1.243078    0.157203    2.231139
     11          1           0       -3.804766   -0.534009   -0.442099
     12          1           0       -2.143502    2.781249    0.970631
     13          1           0       -1.243757    1.391964    1.594256
     14          1           0       -0.695003    2.238242    0.134578
     15          1           0       -2.888746    2.570052   -1.595802
     16          1           0       -1.602093    1.488371   -2.110990
     17          1           0       -3.309012    0.951765   -2.182203
     18          6           0       -3.296101   -0.448769    1.698841
     19          1           0       -4.183590    0.046620    2.115391
     20          1           0       -3.458329   -1.525543    1.805880
     21          1           0       -2.445493   -0.168835    2.325041
     22          6           0       -1.008956   -2.106066    0.522007
     23          1           0       -1.894333   -2.731840    0.634568
     24          1           0       -0.154201   -2.755318    0.278603
     25          1           0       -0.770015   -1.596085    1.455245
     26          6           0       -1.792429   -1.645747   -1.879915
     27          1           0       -1.066807   -2.329185   -2.345062
     28          1           0       -2.705059   -2.207144   -1.675796
     29          1           0       -1.979235   -0.837376   -2.585033
 ---------------------------------------------------------------------

 SCF Done:  E(UB97D3) =  -3034.62976300     A.U. after   17 cycles
 Normal termination of Gaussian 16 at Tue Feb 11 23:24:54 2020.
