 Gaussian 16, Revision A.03,

 --------------------------------
 #t pop=none jul-cc-pvdz upbe1pbe
 --------------------------------
 ------------------------
 theory_abbreviation pbe0
 ------------------------
 Symbolic Z-matrix:
 Charge =  0 Multiplicity = 6

 SCF Done:  E(UPBE1PBE) =  -3033.10800785     A.U. after   21 cycles
 Normal termination of Gaussian 16 at Tue Feb 11 13:57:18 2020.

 ---------------------------------------------------------------------
 #t pop=none jul-cc-pvdz guess=read upbe1pbe empiricaldispersion=gd3bj
 ---------------------------------------------------------------------
 -----------------------------
 theory_abbreviation pbe0_d3bj
 -----------------------------
 Symbolic Z-matrix:
 Charge =  0 Multiplicity = 6

 SCF Done:  E(UPBE1PBE) =  -3033.14456926     A.U. after    1 cycles
 Normal termination of Gaussian 16 at Tue Feb 11 13:58:28 2020.

 -----------------------------------------
 #t pop=none jul-cc-pvdz guess=read ub3lyp
 -----------------------------------------
 -------------------------
 theory_abbreviation b3lyp
 -------------------------
 Symbolic Z-matrix:
 Charge =  0 Multiplicity = 6

 SCF Done:  E(UB3LYP) =  -3034.31924816     A.U. after   15 cycles
 Normal termination of Gaussian 16 at Tue Feb 11 14:13:50 2020.

 -------------------------------------------------------------------
 #t pop=none jul-cc-pvdz guess=read ub3lyp empiricaldispersion=gd3bj
 -------------------------------------------------------------------
 ------------------------------
 theory_abbreviation b3lyp_d3bj
 ------------------------------
 Symbolic Z-matrix:
 Charge =  0 Multiplicity = 6

 SCF Done:  E(UB3LYP) =  -3034.38747236     A.U. after    1 cycles
 Normal termination of Gaussian 16 at Tue Feb 11 14:15:01 2020.

 ----------------------------------------
 #t pop=none jul-cc-pvdz guess=read ub97d
 ----------------------------------------
 ------------------------
 theory_abbreviation b97d
 ------------------------
 Symbolic Z-matrix:
 Charge =  0 Multiplicity = 6

 SCF Done:  E(UB97D) =  -3034.57043959     A.U. after   16 cycles

 ----------------------------------------------------------------
 #t pop=none jul-cc-pvdz guess=read ub97d empiricaldispersion=gd3
 ----------------------------------------------------------------
 -------------------------
 theory_abbreviation b97d3
 -------------------------
 Symbolic Z-matrix:
 Charge =  0 Multiplicity = 6

 SCF Done:  E(UB97D) =  -3034.57103638     A.U. after    1 cycles
 SCF Done:  E(UBHandHLYP) =  -3033.96258240     A.U. after   17 cycles
 SCF Done:  E(UBHandH) =  -3026.31285590     A.U. after   13 cycles
 SCF Done:  E(ULC-wPBE) =  -3033.44975250     A.U. after   17 cycles
 SCF Done:  E(UB-P86) =  -3034.62508120     A.U. after   18 cycles
 SCF Done:  E(UmPW1LYP) =  -3034.03736435     A.U. after   15 cycles
 SCF Done:  E(UmPW1PBE) =  -3033.88237163     A.U. after   15 cycles
 SCF Done:  E(UmPW3PBE) =  -3033.65447445     A.U. after   14 cycles
 SCF Done:  E(UM11) =  -3033.80326148     A.U. after   18 cycles
 SCF Done:  E(UN12SX) =  -3033.24774458     A.U. after   16 cycles
 SCF Done:  E(UMN12SX) =  -3033.64370430     A.U. after   16 cycles
 SCF Done:  E(UB1B95) =  -3034.37449870     A.U. after   16 cycles
 Normal termination of Gaussian 16 at Tue Feb 11 22:56:02 2020.
 SCF Done:  E(UB3PW91) =  -3033.96971104     A.U. after   15 cycles
 Normal termination of Gaussian 16 at Tue Feb 11 23:11:31 2020.
 SCF Done:  E(UM06L) =  -3034.18614572     A.U. after   17 cycles
 Normal termination of Gaussian 16 at Tue Feb 11 23:30:14 2020.
 Gaussian 16:  ES64L-G16RevA.03 25-Dec-2016

                         Standard orientation:
 ---------------------------------------------------------------------
 Center     Atomic      Atomic             Coordinates (Angstroms)
 Number     Number       Type             X           Y           Z
 ---------------------------------------------------------------------
      1          8           0       -0.355831   -0.121468   -0.460051
      2          6           0       -1.256507   -1.116459   -0.310245
      3          6           0       -2.530481   -0.467999    0.609802
      4          6           0       -2.763183    0.774547   -0.057782
      5          6           0       -3.718348    0.866067   -1.190391
      6         26           0        1.442172    0.168612   -0.072852
      7         17           0        1.666482    2.263071   -0.758307
      8          6           0       -2.006297    1.971907    0.277125
      9         17           0        2.607001   -1.356349   -1.148295
     10         17           0        1.656016    0.023147    2.132975
     11          1           0       -3.347613   -1.172792    0.434597
     12          1           0       -2.387550    2.883907   -0.184596
     13          1           0       -1.820907    2.098614    1.345810
     14          1           0       -1.002845    1.742859   -0.156638
     15          1           0       -4.535397    1.533138   -0.875073
     16          1           0       -3.249421    1.357154   -2.052901
     17          1           0       -4.144067   -0.093180   -1.483903
     18          6           0       -2.134748   -0.374861    2.087075
     19          1           0       -2.841900    0.260762    2.630200
     20          1           0       -2.161384   -1.364600    2.545449
     21          1           0       -1.127736    0.029100    2.214082
     22          6           0       -0.729761   -2.316418    0.491623
     23          1           0       -1.517137   -3.050675    0.688592
     24          1           0        0.044763   -2.788805   -0.121909
     25          1           0       -0.266775   -2.009294    1.429067
     26          6           0       -1.773544   -1.587891   -1.675884
     27          1           0       -0.951366   -2.116669   -2.167106
     28          1           0       -2.622527   -2.274229   -1.587966
     29          1           0       -2.042246   -0.748601   -2.319403
 ---------------------------------------------------------------------

 SCF Done:  E(UB97D3) =  -3034.60557611     A.U. after   16 cycles
 Normal termination of Gaussian 16 at Tue Feb 11 23:42:58 2020.
