 Gaussian 16, Revision A.03,

 --------------------------------
 #t pop=none jul-cc-pvdz upbe1pbe
 --------------------------------
 ------------------------
 theory_abbreviation pbe0
 ------------------------
 Symbolic Z-matrix:
 Charge =  0 Multiplicity = 6

 SCF Done:  E(UPBE1PBE) =  -3033.12883746     A.U. after   19 cycles
 Normal termination of Gaussian 16 at Tue Feb 11 13:54:43 2020.

 ---------------------------------------------------------------------
 #t pop=none jul-cc-pvdz guess=read upbe1pbe empiricaldispersion=gd3bj
 ---------------------------------------------------------------------
 -----------------------------
 theory_abbreviation pbe0_d3bj
 -----------------------------
 Symbolic Z-matrix:
 Charge =  0 Multiplicity = 6

 SCF Done:  E(UPBE1PBE) =  -3033.16577638     A.U. after    1 cycles
 Normal termination of Gaussian 16 at Tue Feb 11 13:55:55 2020.

 -----------------------------------------
 #t pop=none jul-cc-pvdz guess=read ub3lyp
 -----------------------------------------
 -------------------------
 theory_abbreviation b3lyp
 -------------------------
 Symbolic Z-matrix:
 Charge =  0 Multiplicity = 6

 SCF Done:  E(UB3LYP) =  -3034.34074321     A.U. after   13 cycles
 Normal termination of Gaussian 16 at Tue Feb 11 14:09:44 2020.

 -------------------------------------------------------------------
 #t pop=none jul-cc-pvdz guess=read ub3lyp empiricaldispersion=gd3bj
 -------------------------------------------------------------------
 ------------------------------
 theory_abbreviation b3lyp_d3bj
 ------------------------------
 Symbolic Z-matrix:
 Charge =  0 Multiplicity = 6

 SCF Done:  E(UB3LYP) =  -3034.40950362     A.U. after    1 cycles
 Normal termination of Gaussian 16 at Tue Feb 11 14:10:57 2020.

 ----------------------------------------
 #t pop=none jul-cc-pvdz guess=read ub97d
 ----------------------------------------
 ------------------------
 theory_abbreviation b97d
 ------------------------
 Symbolic Z-matrix:
 Charge =  0 Multiplicity = 6

 SCF Done:  E(UB97D) =  -3034.59025635     A.U. after   16 cycles

 ----------------------------------------------------------------
 #t pop=none jul-cc-pvdz guess=read ub97d empiricaldispersion=gd3
 ----------------------------------------------------------------
 -------------------------
 theory_abbreviation b97d3
 -------------------------
 Symbolic Z-matrix:
 Charge =  0 Multiplicity = 6

 SCF Done:  E(UB97D) =  -3034.59100142     A.U. after    1 cycles
 SCF Done:  E(UBHandHLYP) =  -3033.98383010     A.U. after   16 cycles
 SCF Done:  E(UBHandH) =  -3026.33058419     A.U. after   14 cycles
 SCF Done:  E(ULC-wPBE) =  -3033.47575994     A.U. after   17 cycles
 SCF Done:  E(UB-P86) =  -3034.64698760     A.U. after   16 cycles
 SCF Done:  E(UmPW1LYP) =  -3034.05902926     A.U. after   14 cycles
 SCF Done:  E(UmPW1PBE) =  -3033.90326605     A.U. after   14 cycles
 SCF Done:  E(UmPW3PBE) =  -3033.67526708     A.U. after   14 cycles
 SCF Done:  E(UM11) =  -3033.82388947     A.U. after   16 cycles
 SCF Done:  E(UN12SX) =  -3033.26931490     A.U. after   16 cycles
 SCF Done:  E(UMN12SX) =  -3033.66347536     A.U. after   16 cycles
 SCF Done:  E(UB1B95) =  -3034.39481985     A.U. after   14 cycles
 Normal termination of Gaussian 16 at Tue Feb 11 22:29:05 2020.
 SCF Done:  E(UB3PW91) =  -3033.99059777     A.U. after   14 cycles
 Normal termination of Gaussian 16 at Tue Feb 11 22:43:46 2020.
 SCF Done:  E(UM06L) =  -3034.20433233     A.U. after   18 cycles
 Normal termination of Gaussian 16 at Tue Feb 11 23:05:15 2020.
 Gaussian 16:  ES64L-G16RevA.03 25-Dec-2016

                         Standard orientation:
 ---------------------------------------------------------------------
 Center     Atomic      Atomic             Coordinates (Angstroms)
 Number     Number       Type             X           Y           Z
 ---------------------------------------------------------------------
      1          8           0       -0.440628   -0.150201   -0.505196
      2          6           0       -1.476241   -1.173896   -0.325626
      3          6           0       -2.744291   -0.121045   -0.247813
      4          6           0       -1.881210    1.142051   -0.265794
      5          6           0       -1.807754    1.938281   -1.520972
      6         26           0        1.373602    0.030770    0.032400
      7         17           0        1.887183    1.980983   -0.859600
      8          6           0       -1.546650    1.843641    1.003997
      9         17           0        2.383071   -1.744073   -0.758482
     10         17           0        1.404841    0.135770    2.236440
     11          1           0       -3.294483   -0.185093   -1.191425
     12          1           0       -2.415360    2.464308    1.271889
     13          1           0       -1.351311    1.158095    1.828495
     14          1           0       -0.686293    2.503922    0.872277
     15          1           0       -2.638448    2.661256   -1.502119
     16          1           0       -0.869142    2.495694   -1.576216
     17          1           0       -1.919741    1.310347   -2.406485
     18          6           0       -3.714199   -0.274426    0.916756
     19          1           0       -4.477573    0.511778    0.897468
     20          1           0       -4.231831   -1.235794    0.841943
     21          1           0       -3.214985   -0.238933    1.887876
     22          6           0       -1.236550   -1.973911    0.941078
     23          1           0       -2.054399   -2.682526    1.107947
     24          1           0       -0.308534   -2.546409    0.836866
     25          1           0       -1.134282   -1.334178    1.819750
     26          6           0       -1.513285   -2.048506   -1.564656
     27          1           0       -0.562307   -2.581804   -1.665475
     28          1           0       -2.322484   -2.784232   -1.493724
     29          1           0       -1.662978   -1.443549   -2.463813
 ---------------------------------------------------------------------

 SCF Done:  E(UB97D3) =  -3034.62632614     A.U. after   15 cycles
 Normal termination of Gaussian 16 at Tue Feb 11 23:17:27 2020.
