 Gaussian 16, Revision A.03,

 --------------------------------
 #t pop=none jul-cc-pvdz upbe1pbe
 --------------------------------
 ------------------------
 theory_abbreviation pbe0
 ------------------------
 Symbolic Z-matrix:
 Charge =  0 Multiplicity = 6

 SCF Done:  E(UPBE1PBE) =  -3033.10836940     A.U. after   21 cycles
 Normal termination of Gaussian 16 at Tue Feb 11 13:57:41 2020.

 ---------------------------------------------------------------------
 #t pop=none jul-cc-pvdz guess=read upbe1pbe empiricaldispersion=gd3bj
 ---------------------------------------------------------------------
 -----------------------------
 theory_abbreviation pbe0_d3bj
 -----------------------------
 Symbolic Z-matrix:
 Charge =  0 Multiplicity = 6

 SCF Done:  E(UPBE1PBE) =  -3033.14501180     A.U. after    1 cycles
 Normal termination of Gaussian 16 at Tue Feb 11 13:59:16 2020.

 -----------------------------------------
 #t pop=none jul-cc-pvdz guess=read ub3lyp
 -----------------------------------------
 -------------------------
 theory_abbreviation b3lyp
 -------------------------
 Symbolic Z-matrix:
 Charge =  0 Multiplicity = 6

 SCF Done:  E(UB3LYP) =  -3034.31972051     A.U. after   15 cycles
 Normal termination of Gaussian 16 at Tue Feb 11 14:15:00 2020.

 -------------------------------------------------------------------
 #t pop=none jul-cc-pvdz guess=read ub3lyp empiricaldispersion=gd3bj
 -------------------------------------------------------------------
 ------------------------------
 theory_abbreviation b3lyp_d3bj
 ------------------------------
 Symbolic Z-matrix:
 Charge =  0 Multiplicity = 6

 SCF Done:  E(UB3LYP) =  -3034.38827377     A.U. after    1 cycles
 Normal termination of Gaussian 16 at Tue Feb 11 14:16:27 2020.

 ----------------------------------------
 #t pop=none jul-cc-pvdz guess=read ub97d
 ----------------------------------------
 ------------------------
 theory_abbreviation b97d
 ------------------------
 Symbolic Z-matrix:
 Charge =  0 Multiplicity = 6

 SCF Done:  E(UB97D) =  -3034.57322774     A.U. after   17 cycles

 ----------------------------------------------------------------
 #t pop=none jul-cc-pvdz guess=read ub97d empiricaldispersion=gd3
 ----------------------------------------------------------------
 -------------------------
 theory_abbreviation b97d3
 -------------------------
 Symbolic Z-matrix:
 Charge =  0 Multiplicity = 6

 SCF Done:  E(UB97D) =  -3034.57369032     A.U. after    2 cycles
 SCF Done:  E(UBHandHLYP) =  -3033.96160984     A.U. after   16 cycles
 SCF Done:  E(UBHandH) =  -3026.31180080     A.U. after   13 cycles
 SCF Done:  E(ULC-wPBE) =  -3033.44948110     A.U. after   17 cycles
 SCF Done:  E(UB-P86) =  -3034.62744909     A.U. after   18 cycles
 SCF Done:  E(UmPW1LYP) =  -3034.03753081     A.U. after   15 cycles
 SCF Done:  E(UmPW1PBE) =  -3033.88271497     A.U. after   15 cycles
 SCF Done:  E(UmPW3PBE) =  -3033.65506713     A.U. after   14 cycles
 SCF Done:  E(UM11) =  -3033.80351427     A.U. after   18 cycles
 SCF Done:  E(UN12SX) =  -3033.24824371     A.U. after   17 cycles
 SCF Done:  E(UMN12SX) =  -3033.64448868     A.U. after   17 cycles
 SCF Done:  E(UB1B95) =  -3034.37545658     A.U. after   16 cycles
 Normal termination of Gaussian 16 at Tue Feb 11 23:02:23 2020.
 SCF Done:  E(UB3PW91) =  -3033.97032955     A.U. after   15 cycles
 Normal termination of Gaussian 16 at Tue Feb 11 23:17:48 2020.
 SCF Done:  E(UM06L) =  -3034.18782863     A.U. after   18 cycles
 Normal termination of Gaussian 16 at Tue Feb 11 23:37:44 2020.
 Gaussian 16:  ES64L-G16RevA.03 25-Dec-2016

                         Standard orientation:
 ---------------------------------------------------------------------
 Center     Atomic      Atomic             Coordinates (Angstroms)
 Number     Number       Type             X           Y           Z
 ---------------------------------------------------------------------
      1          8           0       -0.256183   -0.359072   -0.618142
      2          6           0       -1.319903   -1.136182   -0.281839
      3          6           0       -2.307324   -0.331866    0.767247
      4          6           0       -2.937412    0.711261   -0.011595
      5          6           0       -4.313700    0.555744   -0.534635
      6         26           0        1.475374    0.123529   -0.099931
      7         17           0        2.785873   -0.330101   -1.799752
      8          6           0       -2.142438    1.861801   -0.412731
      9         17           0        2.070434   -0.938833    1.744131
     10         17           0        1.290261    2.307448    0.314362
     11          1           0       -3.051380   -1.075316    1.067733
     12          1           0       -2.653629    2.565578   -1.070111
     13          1           0       -1.659821    2.374705    0.426899
     14          1           0       -1.253570    1.398279   -0.912800
     15          1           0       -4.952005    1.246019    0.042165
     16          1           0       -4.387786    0.880955   -1.578701
     17          1           0       -4.710184   -0.453610   -0.414358
     18          6           0       -1.506049    0.166005    1.982712
     19          1           0       -2.159423    0.736241    2.650590
     20          1           0       -1.104070   -0.677027    2.544559
     21          1           0       -0.671203    0.801435    1.688325
     22          6           0       -0.904631   -2.418485    0.469276
     23          1           0       -1.778863   -3.008627    0.760742
     24          1           0       -0.295743   -3.011219   -0.220270
     25          1           0       -0.292216   -2.203161    1.343506
     26          6           0       -2.081841   -1.522878   -1.562440
     27          1           0       -1.432470   -2.166329   -2.161881
     28          1           0       -3.006040   -2.069963   -1.345940
     29          1           0       -2.313739   -0.644240   -2.171662
 ---------------------------------------------------------------------

 SCF Done:  E(UB97D3) =  -3034.60774815     A.U. after   16 cycles
 Normal termination of Gaussian 16 at Tue Feb 11 23:51:03 2020.
