 Gaussian 16, Revision A.03,

 --------------------------------
 #t pop=none jul-cc-pvdz upbe1pbe
 --------------------------------
 ------------------------
 theory_abbreviation pbe0
 ------------------------
 Symbolic Z-matrix:
 Charge =  0 Multiplicity = 6

 SCF Done:  E(UPBE1PBE) =  -3033.11047906     A.U. after   21 cycles
 Normal termination of Gaussian 16 at Tue Feb 11 13:57:03 2020.

 ---------------------------------------------------------------------
 #t pop=none jul-cc-pvdz guess=read upbe1pbe empiricaldispersion=gd3bj
 ---------------------------------------------------------------------
 -----------------------------
 theory_abbreviation pbe0_d3bj
 -----------------------------
 Symbolic Z-matrix:
 Charge =  0 Multiplicity = 6

 SCF Done:  E(UPBE1PBE) =  -3033.14672386     A.U. after    1 cycles
 Normal termination of Gaussian 16 at Tue Feb 11 13:58:12 2020.

 -----------------------------------------
 #t pop=none jul-cc-pvdz guess=read ub3lyp
 -----------------------------------------
 -------------------------
 theory_abbreviation b3lyp
 -------------------------
 Symbolic Z-matrix:
 Charge =  0 Multiplicity = 6

 SCF Done:  E(UB3LYP) =  -3034.32183096     A.U. after   15 cycles
 Normal termination of Gaussian 16 at Tue Feb 11 14:13:31 2020.

 -------------------------------------------------------------------
 #t pop=none jul-cc-pvdz guess=read ub3lyp empiricaldispersion=gd3bj
 -------------------------------------------------------------------
 ------------------------------
 theory_abbreviation b3lyp_d3bj
 ------------------------------
 Symbolic Z-matrix:
 Charge =  0 Multiplicity = 6

 SCF Done:  E(UB3LYP) =  -3034.38950151     A.U. after    1 cycles
 Normal termination of Gaussian 16 at Tue Feb 11 14:14:40 2020.

 ----------------------------------------
 #t pop=none jul-cc-pvdz guess=read ub97d
 ----------------------------------------
 ------------------------
 theory_abbreviation b97d
 ------------------------
 Symbolic Z-matrix:
 Charge =  0 Multiplicity = 6

 SCF Done:  E(UB97D) =  -3034.57376955     A.U. after   16 cycles

 ----------------------------------------------------------------
 #t pop=none jul-cc-pvdz guess=read ub97d empiricaldispersion=gd3
 ----------------------------------------------------------------
 -------------------------
 theory_abbreviation b97d3
 -------------------------
 Symbolic Z-matrix:
 Charge =  0 Multiplicity = 6

 SCF Done:  E(UB97D) =  -3034.57398634     A.U. after    1 cycles
 SCF Done:  E(UBHandHLYP) =  -3033.96380252     A.U. after   17 cycles
 SCF Done:  E(UBHandH) =  -3026.31397325     A.U. after   13 cycles
 SCF Done:  E(ULC-wPBE) =  -3033.45137149     A.U. after   17 cycles
 SCF Done:  E(UB-P86) =  -3034.62856135     A.U. after   17 cycles
 SCF Done:  E(UmPW1LYP) =  -3034.03959066     A.U. after   15 cycles
 SCF Done:  E(UmPW1PBE) =  -3033.88491937     A.U. after   15 cycles
 SCF Done:  E(UmPW3PBE) =  -3033.65723198     A.U. after   14 cycles
 SCF Done:  E(UM11) =  -3033.80406782     A.U. after   18 cycles
 SCF Done:  E(UN12SX) =  -3033.24989345     A.U. after   17 cycles
 SCF Done:  E(UMN12SX) =  -3033.64473262     A.U. after   16 cycles
 SCF Done:  E(UB1B95) =  -3034.37629495     A.U. after   16 cycles
 Normal termination of Gaussian 16 at Tue Feb 11 22:42:51 2020.
 SCF Done:  E(UB3PW91) =  -3033.97252570     A.U. after   15 cycles
 Normal termination of Gaussian 16 at Tue Feb 11 22:59:24 2020.
 SCF Done:  E(UM06L) =  -3034.18811434     A.U. after   17 cycles
 Normal termination of Gaussian 16 at Tue Feb 11 23:18:12 2020.
 Gaussian 16:  ES64L-G16RevA.03 25-Dec-2016

                         Standard orientation:
 ---------------------------------------------------------------------
 Center     Atomic      Atomic             Coordinates (Angstroms)
 Number     Number       Type             X           Y           Z
 ---------------------------------------------------------------------
      1          8           0       -0.322292   -0.082481   -0.405054
      2          6           0       -1.270094   -1.044927   -0.233547
      3          6           0       -2.486386   -0.431804    0.697701
      4          6           0       -2.982825    0.708914   -0.037303
      5          6           0       -4.161979    0.594783   -0.928550
      6         26           0        1.499360    0.172159   -0.084950
      7         17           0        1.782070    2.241680   -0.798402
      8          6           0       -2.202703    1.927108   -0.041385
      9         17           0        2.548639   -1.401178   -1.212225
     10         17           0        1.821824    0.007698    2.102591
     11          1           0       -3.236721   -1.227553    0.717934
     12          1           0       -2.608196    2.743299   -0.639044
     13          1           0       -1.880570    2.259377    0.949512
     14          1           0       -1.231813    1.534815   -0.479764
     15          1           0       -4.987363    1.137176   -0.438704
     16          1           0       -3.993589    1.102669   -1.885218
     17          1           0       -4.481745   -0.435471   -1.090759
     18          6           0       -1.959996   -0.113573    2.108721
     19          1           0       -2.656024    0.542505    2.640688
     20          1           0       -1.866671   -1.034596    2.685934
     21          1           0       -0.977099    0.359925    2.074485
     22          6           0       -0.731561   -2.260511    0.546251
     23          1           0       -1.527136   -2.976872    0.774254
     24          1           0        0.012088   -2.748488   -0.091277
     25          1           0       -0.231885   -1.958502    1.467045
     26          6           0       -1.803577   -1.496077   -1.602338
     27          1           0       -0.988722   -2.000991   -2.128330
     28          1           0       -2.643590   -2.193746   -1.512004
     29          1           0       -2.104315   -0.642711   -2.216296
 ---------------------------------------------------------------------

 SCF Done:  E(UB97D3) =  -3034.60882823     A.U. after   16 cycles
 Normal termination of Gaussian 16 at Tue Feb 11 23:31:06 2020.
