 Gaussian 16, Revision A.03,

 --------------------------------
 #t pop=none jul-cc-pvdz upbe1pbe
 --------------------------------
 ------------------------
 theory_abbreviation pbe0
 ------------------------
 Symbolic Z-matrix:
 Charge =  0 Multiplicity = 6

 SCF Done:  E(UPBE1PBE) =  -3033.14089730     A.U. after   20 cycles
 Normal termination of Gaussian 16 at Wed Feb 12 15:26:54 2020.

 ---------------------------------------------------------------------
 #t pop=none jul-cc-pvdz guess=read upbe1pbe empiricaldispersion=gd3bj
 ---------------------------------------------------------------------
 -----------------------------
 theory_abbreviation pbe0_d3bj
 -----------------------------
 Symbolic Z-matrix:
 Charge =  0 Multiplicity = 6

 SCF Done:  E(UPBE1PBE) =  -3033.17655620     A.U. after    1 cycles
 Normal termination of Gaussian 16 at Wed Feb 12 15:28:34 2020.

 -----------------------------------------
 #t pop=none jul-cc-pvdz guess=read ub3lyp
 -----------------------------------------
 -------------------------
 theory_abbreviation b3lyp
 -------------------------
 Symbolic Z-matrix:
 Charge =  0 Multiplicity = 6

 SCF Done:  E(UB3LYP) =  -3034.36009069     A.U. after   13 cycles
 Normal termination of Gaussian 16 at Wed Feb 12 15:41:42 2020.

 -------------------------------------------------------------------
 #t pop=none jul-cc-pvdz guess=read ub3lyp empiricaldispersion=gd3bj
 -------------------------------------------------------------------
 ------------------------------
 theory_abbreviation b3lyp_d3bj
 ------------------------------
 Symbolic Z-matrix:
 Charge =  0 Multiplicity = 6

 SCF Done:  E(UB3LYP) =  -3034.42591256     A.U. after    1 cycles
 Normal termination of Gaussian 16 at Wed Feb 12 15:43:39 2020.

 ----------------------------------------
 #t pop=none jul-cc-pvdz guess=read ub97d
 ----------------------------------------
 ------------------------
 theory_abbreviation b97d
 ------------------------
 Symbolic Z-matrix:
 Charge =  0 Multiplicity = 6

 SCF Done:  E(UB97D) =  -3034.60836073     A.U. after   17 cycles

 ----------------------------------------------------------------
 #t pop=none jul-cc-pvdz guess=read ub97d empiricaldispersion=gd3
 ----------------------------------------------------------------
 -------------------------
 theory_abbreviation b97d3
 -------------------------
 Symbolic Z-matrix:
 Charge =  0 Multiplicity = 6

 SCF Done:  E(UB97D) =  -3034.61028922     A.U. after    1 cycles
 SCF Done:  E(UBHandHLYP) =  -3034.00208818     A.U. after   18 cycles
 SCF Done:  E(UBHandH) =  -3026.33542139     A.U. after   14 cycles
 SCF Done:  E(ULC-wPBE) =  -3033.48208086     A.U. after   17 cycles
 SCF Done:  E(UB-P86) =  -3034.65711620     A.U. after   18 cycles
 SCF Done:  E(UmPW1LYP) =  -3034.07845993     A.U. after   13 cycles
 SCF Done:  E(UmPW1PBE) =  -3033.91543572     A.U. after   14 cycles
 SCF Done:  E(UmPW3PBE) =  -3033.68842211     A.U. after   13 cycles
 SCF Done:  E(UM11) =  -3033.83935705     A.U. after   16 cycles
 SCF Done:  E(UN12SX) =  -3033.27988301     A.U. after   16 cycles
 SCF Done:  E(UMN12SX) =  -3033.68213941     A.U. after   16 cycles
 SCF Done:  E(UB1B95) =  -3034.41174358     A.U. after   14 cycles
 Normal termination of Gaussian 16 at Wed Feb 12 23:35:20 2020.
 SCF Done:  E(UB3PW91) =  -3034.00485883     A.U. after   13 cycles
 Normal termination of Gaussian 16 at Wed Feb 12 23:53:19 2020.
 SCF Done:  E(UM06L) =  -3034.22605564     A.U. after   18 cycles
 Normal termination of Gaussian 16 at Thu Feb 13 00:12:11 2020.
 Gaussian 16:  ES64L-G16RevA.03 25-Dec-2016

                         Standard orientation:
 ---------------------------------------------------------------------
 Center     Atomic      Atomic             Coordinates (Angstroms)
 Number     Number       Type             X           Y           Z
 ---------------------------------------------------------------------
      1          8           0        0.139700    0.486226   -0.892433
      2          6           0        0.868536    1.471670   -0.657762
      3          6           0        3.196821    0.036016    0.574303
      4          6           0        2.713146   -0.914092   -0.247070
      5          6           0        3.160134   -1.005348   -1.683313
      6         26           0       -1.495308   -0.188547    0.020140
      7         17           0       -2.054846   -1.960248   -1.102209
      8          6           0        1.762822   -2.001191    0.170017
      9         17           0       -2.800733    1.549424   -0.225118
     10         17           0       -1.006324   -0.555849    2.123727
     11          1           0        3.928097    0.730255    0.156380
     12          1           0        2.259190   -2.978178    0.093980
     13          1           0        1.388901   -1.891885    1.187837
     14          1           0        0.902126   -2.045912   -0.509099
     15          1           0        3.666370   -1.962770   -1.864519
     16          1           0        2.298735   -0.980743   -2.363922
     17          1           0        3.851863   -0.202860   -1.957331
     18          6           0        2.949546    0.182205    2.050220
     19          1           0        3.789507   -0.233009    2.624213
     20          1           0        2.871133    1.237156    2.337807
     21          1           0        2.039906   -0.323835    2.382366
     22          6           0        0.735193    2.253649    0.609125
     23          1           0        1.600067    2.894428    0.786221
     24          1           0       -0.158185    2.886184    0.499912
     25          1           0        0.561496    1.595453    1.462125
     26          6           0        1.724105    2.010911   -1.759322
     27          1           0        1.236983    2.926659   -2.124859
     28          1           0        2.712758    2.291684   -1.390525
     29          1           0        1.801997    1.300306   -2.580750
 ---------------------------------------------------------------------

 SCF Done:  E(UB97D3) =  -3034.64479989     A.U. after   16 cycles
 Normal termination of Gaussian 16 at Thu Feb 13 00:24:31 2020.
