 Gaussian 16, Revision A.03,

 --------------------------------
 #t pop=none jul-cc-pvdz upbe1pbe
 --------------------------------
 ------------------------
 theory_abbreviation pbe0
 ------------------------
 Symbolic Z-matrix:
 Charge =  0 Multiplicity = 6

 SCF Done:  E(UPBE1PBE) =  -3033.13324351     A.U. after   19 cycles
 Normal termination of Gaussian 16 at Tue Feb 11 13:58:05 2020.

 ---------------------------------------------------------------------
 #t pop=none jul-cc-pvdz guess=read upbe1pbe empiricaldispersion=gd3bj
 ---------------------------------------------------------------------
 -----------------------------
 theory_abbreviation pbe0_d3bj
 -----------------------------
 Symbolic Z-matrix:
 Charge =  0 Multiplicity = 6

 SCF Done:  E(UPBE1PBE) =  -3033.17008031     A.U. after    1 cycles
 Normal termination of Gaussian 16 at Tue Feb 11 13:59:16 2020.

 -----------------------------------------
 #t pop=none jul-cc-pvdz guess=read ub3lyp
 -----------------------------------------
 -------------------------
 theory_abbreviation b3lyp
 -------------------------
 Symbolic Z-matrix:
 Charge =  0 Multiplicity = 6

 SCF Done:  E(UB3LYP) =  -3034.35091344     A.U. after   13 cycles
 Normal termination of Gaussian 16 at Tue Feb 11 14:12:56 2020.

 -------------------------------------------------------------------
 #t pop=none jul-cc-pvdz guess=read ub3lyp empiricaldispersion=gd3bj
 -------------------------------------------------------------------
 ------------------------------
 theory_abbreviation b3lyp_d3bj
 ------------------------------
 Symbolic Z-matrix:
 Charge =  0 Multiplicity = 6

 SCF Done:  E(UB3LYP) =  -3034.41924069     A.U. after    1 cycles
 Normal termination of Gaussian 16 at Tue Feb 11 14:14:06 2020.

 ----------------------------------------
 #t pop=none jul-cc-pvdz guess=read ub97d
 ----------------------------------------
 ------------------------
 theory_abbreviation b97d
 ------------------------
 Symbolic Z-matrix:
 Charge =  0 Multiplicity = 6

 SCF Done:  E(UB97D) =  -3034.60237393     A.U. after   15 cycles

 ----------------------------------------------------------------
 #t pop=none jul-cc-pvdz guess=read ub97d empiricaldispersion=gd3
 ----------------------------------------------------------------
 -------------------------
 theory_abbreviation b97d3
 -------------------------
 Symbolic Z-matrix:
 Charge =  0 Multiplicity = 6

 SCF Done:  E(UB97D) =  -3034.60400310     A.U. after    2 cycles
 SCF Done:  E(UBHandHLYP) =  -3033.99273363     A.U. after   16 cycles
 SCF Done:  E(UBHandH) =  -3026.33089840     A.U. after   14 cycles
 SCF Done:  E(ULC-wPBE) =  -3033.47461494     A.U. after   19 cycles
 SCF Done:  E(UB-P86) =  -3034.65200374     A.U. after   17 cycles
 SCF Done:  E(UmPW1LYP) =  -3034.06925670     A.U. after   13 cycles
 SCF Done:  E(UmPW1PBE) =  -3033.90765934     A.U. after   13 cycles
 SCF Done:  E(UmPW3PBE) =  -3033.68059654     A.U. after   13 cycles
 SCF Done:  E(UM11) =  -3033.83220667     A.U. after   17 cycles
 SCF Done:  E(UN12SX) =  -3033.27212943     A.U. after   16 cycles
 SCF Done:  E(UMN12SX) =  -3033.67451614     A.U. after   16 cycles
 SCF Done:  E(UB1B95) =  -3034.40390111     A.U. after   14 cycles
 Normal termination of Gaussian 16 at Tue Feb 11 23:48:35 2020.
 SCF Done:  E(UB3PW91) =  -3033.99667404     A.U. after   13 cycles
 Normal termination of Gaussian 16 at Wed Feb 12 00:02:11 2020.
 SCF Done:  E(UM06L) =  -3034.21938584     A.U. after   17 cycles
 Normal termination of Gaussian 16 at Wed Feb 12 00:20:31 2020.
 Gaussian 16:  ES64L-G16RevA.03 25-Dec-2016

                         Standard orientation:
 ---------------------------------------------------------------------
 Center     Atomic      Atomic             Coordinates (Angstroms)
 Number     Number       Type             X           Y           Z
 ---------------------------------------------------------------------
      1          8           0        0.237823    0.330729   -0.841469
      2          6           0        1.022160    1.294437   -0.659571
      3          6           0        3.083538    0.079565    0.479423
      4          6           0        2.573156   -0.970554   -0.196921
      5          6           0        2.958642   -1.252558   -1.622809
      6         26           0       -1.466134   -0.146215    0.023009
      7         17           0       -2.085577   -1.982622   -0.964741
      8          6           0        1.647901   -1.988370    0.400932
      9         17           0       -2.659140    1.631081   -0.438172
     10         17           0       -1.113662   -0.355455    2.180552
     11          1           0        3.808803    0.704210   -0.042363
     12          1           0        2.171263   -2.950473    0.487152
     13          1           0        1.273189   -1.718790    1.387728
     14          1           0        0.790527   -2.166743   -0.259084
     15          1           0        3.409343   -2.250808   -1.695769
     16          1           0        2.071166   -1.267548   -2.269109
     17          1           0        3.679121   -0.529544   -2.015406
     18          6           0        2.951419    0.341550    1.956204
     19          1           0        3.775633   -0.140907    2.499134
     20          1           0        3.012638    1.410805    2.182167
     21          1           0        2.016845   -0.039117    2.375983
     22          6           0        0.867275    2.200789    0.521243
     23          1           0        1.755052    2.811134    0.690040
     24          1           0        0.025673    2.867713    0.280404
     25          1           0        0.596687    1.651738    1.423210
     26          6           0        1.812491    1.790151   -1.833145
     27          1           0        1.196489    2.574060   -2.298371
     28          1           0        2.758197    2.244303   -1.534309
     29          1           0        1.969223    1.004614   -2.569900
 ---------------------------------------------------------------------

 SCF Done:  E(UB97D3) =  -3034.63871342     A.U. after   17 cycles
 Normal termination of Gaussian 16 at Wed Feb 12 00:34:36 2020.
