 Gaussian 16, Revision A.03,

 --------------------------------
 #t pop=none jul-cc-pvdz upbe1pbe
 --------------------------------
 ------------------------
 theory_abbreviation pbe0
 ------------------------
 Symbolic Z-matrix:
 Charge =  0 Multiplicity = 6

 SCF Done:  E(UPBE1PBE) =  -3033.11105855     A.U. after   21 cycles
 Normal termination of Gaussian 16 at Tue Feb 11 14:46:03 2020.

 ---------------------------------------------------------------------
 #t pop=none jul-cc-pvdz guess=read upbe1pbe empiricaldispersion=gd3bj
 ---------------------------------------------------------------------
 -----------------------------
 theory_abbreviation pbe0_d3bj
 -----------------------------
 Symbolic Z-matrix:
 Charge =  0 Multiplicity = 6

 SCF Done:  E(UPBE1PBE) =  -3033.14800178     A.U. after    1 cycles
 Normal termination of Gaussian 16 at Tue Feb 11 14:47:15 2020.

 -----------------------------------------
 #t pop=none jul-cc-pvdz guess=read ub3lyp
 -----------------------------------------
 -------------------------
 theory_abbreviation b3lyp
 -------------------------
 Symbolic Z-matrix:
 Charge =  0 Multiplicity = 6

 SCF Done:  E(UB3LYP) =  -3034.32410445     A.U. after   13 cycles
 Normal termination of Gaussian 16 at Tue Feb 11 15:01:23 2020.

 -------------------------------------------------------------------
 #t pop=none jul-cc-pvdz guess=read ub3lyp empiricaldispersion=gd3bj
 -------------------------------------------------------------------
 ------------------------------
 theory_abbreviation b3lyp_d3bj
 ------------------------------
 Symbolic Z-matrix:
 Charge =  0 Multiplicity = 6

 SCF Done:  E(UB3LYP) =  -3034.39286763     A.U. after    1 cycles
 Normal termination of Gaussian 16 at Tue Feb 11 15:02:35 2020.

 ----------------------------------------
 #t pop=none jul-cc-pvdz guess=read ub97d
 ----------------------------------------
 ------------------------
 theory_abbreviation b97d
 ------------------------
 Symbolic Z-matrix:
 Charge =  0 Multiplicity = 6

 SCF Done:  E(UB97D) =  -3034.57395453     A.U. after   16 cycles

 ----------------------------------------------------------------
 #t pop=none jul-cc-pvdz guess=read ub97d empiricaldispersion=gd3
 ----------------------------------------------------------------
 -------------------------
 theory_abbreviation b97d3
 -------------------------
 Symbolic Z-matrix:
 Charge =  0 Multiplicity = 6

 SCF Done:  E(UB97D) =  -3034.57503507     A.U. after    1 cycles
 SCF Done:  E(UBHandHLYP) =  -3033.96803456     A.U. after   15 cycles
 SCF Done:  E(UBHandH) =  -3026.31383503     A.U. after   14 cycles
 SCF Done:  E(ULC-wPBE) =  -3033.45595004     A.U. after   17 cycles
 SCF Done:  E(UB-P86) =  -3034.62974147     A.U. after   16 cycles
 SCF Done:  E(UmPW1LYP) =  -3034.04259755     A.U. after   14 cycles
 SCF Done:  E(UmPW1PBE) =  -3033.88553645     A.U. after   14 cycles
 SCF Done:  E(UmPW3PBE) =  -3033.65764888     A.U. after   14 cycles
 SCF Done:  E(UM11) =  -3033.80660823     A.U. after   16 cycles
 SCF Done:  E(UN12SX) =  -3033.25112955     A.U. after   16 cycles
 SCF Done:  E(UMN12SX) =  -3033.64745225     A.U. after   15 cycles
 SCF Done:  E(UB1B95) =  -3034.37686963     A.U. after   15 cycles
 Normal termination of Gaussian 16 at Tue Feb 11 23:13:18 2020.
 SCF Done:  E(UB3PW91) =  -3033.97305375     A.U. after   14 cycles
 Normal termination of Gaussian 16 at Tue Feb 11 23:27:30 2020.
 SCF Done:  E(UM06L) =  -3034.18841819     A.U. after   18 cycles
 Normal termination of Gaussian 16 at Tue Feb 11 23:47:09 2020.
 Gaussian 16:  ES64L-G16RevA.03 25-Dec-2016

                         Standard orientation:
 ---------------------------------------------------------------------
 Center     Atomic      Atomic             Coordinates (Angstroms)
 Number     Number       Type             X           Y           Z
 ---------------------------------------------------------------------
      1          8           0       -0.354247   -0.263790   -0.595266
      2          6           0       -1.428609   -1.193686   -0.391204
      3          6           0       -2.755069   -0.146618   -0.206406
      4          6           0       -2.004770    1.149832   -0.252556
      5          6           0       -1.882824    1.890657   -1.524252
      6         26           0        1.376203    0.029363    0.021995
      7         17           0        1.765483    2.056851   -0.807248
      8          6           0       -1.581124    1.828355    0.988217
      9         17           0        2.633711   -1.615170   -0.702016
     10         17           0        1.292432    0.129610    2.242064
     11          1           0       -3.355858   -0.240335   -1.115343
     12          1           0       -2.466222    2.371432    1.361738
     13          1           0       -1.273923    1.129533    1.768113
     14          1           0       -0.783451    2.550626    0.803504
     15          1           0       -2.596388    2.730953   -1.480163
     16          1           0       -0.879007    2.320393   -1.614578
     17          1           0       -2.118456    1.275520   -2.393176
     18          6           0       -3.627819   -0.381286    1.022377
     19          1           0       -4.436274    0.356845    1.078039
     20          1           0       -4.090822   -1.370031    0.957863
     21          1           0       -3.062035   -0.338756    1.955572
     22          6           0       -1.190021   -2.056377    0.834739
     23          1           0       -2.017723   -2.752512    1.001933
     24          1           0       -0.279923   -2.643676    0.665695
     25          1           0       -1.029015   -1.459530    1.734262
     26          6           0       -1.600915   -2.023723   -1.652000
     27          1           0       -0.689615   -2.609181   -1.815745
     28          1           0       -2.450939   -2.709774   -1.564651
     29          1           0       -1.748384   -1.379499   -2.523881
 ---------------------------------------------------------------------

 SCF Done:  E(UB97D3) =  -3034.61024528     A.U. after   15 cycles
 Normal termination of Gaussian 16 at Tue Feb 11 23:59:06 2020.
