 Gaussian 16, Revision A.03,

 --------------------------------
 #t pop=none jul-cc-pvdz upbe1pbe
 --------------------------------
 ------------------------
 theory_abbreviation pbe0
 ------------------------
 Symbolic Z-matrix:
 Charge =  0 Multiplicity = 6

 SCF Done:  E(UPBE1PBE) =  -3033.13459551     A.U. after   19 cycles
 Normal termination of Gaussian 16 at Tue Feb 11 13:58:06 2020.

 ---------------------------------------------------------------------
 #t pop=none jul-cc-pvdz guess=read upbe1pbe empiricaldispersion=gd3bj
 ---------------------------------------------------------------------
 -----------------------------
 theory_abbreviation pbe0_d3bj
 -----------------------------
 Symbolic Z-matrix:
 Charge =  0 Multiplicity = 6

 SCF Done:  E(UPBE1PBE) =  -3033.17124188     A.U. after    1 cycles
 Normal termination of Gaussian 16 at Tue Feb 11 13:59:16 2020.

 -----------------------------------------
 #t pop=none jul-cc-pvdz guess=read ub3lyp
 -----------------------------------------
 -------------------------
 theory_abbreviation b3lyp
 -------------------------
 Symbolic Z-matrix:
 Charge =  0 Multiplicity = 6

 SCF Done:  E(UB3LYP) =  -3034.35255177     A.U. after   13 cycles
 Normal termination of Gaussian 16 at Tue Feb 11 14:12:52 2020.

 -------------------------------------------------------------------
 #t pop=none jul-cc-pvdz guess=read ub3lyp empiricaldispersion=gd3bj
 -------------------------------------------------------------------
 ------------------------------
 theory_abbreviation b3lyp_d3bj
 ------------------------------
 Symbolic Z-matrix:
 Charge =  0 Multiplicity = 6

 SCF Done:  E(UB3LYP) =  -3034.42048297     A.U. after    1 cycles
 Normal termination of Gaussian 16 at Tue Feb 11 14:14:02 2020.

 ----------------------------------------
 #t pop=none jul-cc-pvdz guess=read ub97d
 ----------------------------------------
 ------------------------
 theory_abbreviation b97d
 ------------------------
 Symbolic Z-matrix:
 Charge =  0 Multiplicity = 6

 SCF Done:  E(UB97D) =  -3034.60381561     A.U. after   16 cycles

 ----------------------------------------------------------------
 #t pop=none jul-cc-pvdz guess=read ub97d empiricaldispersion=gd3
 ----------------------------------------------------------------
 -------------------------
 theory_abbreviation b97d3
 -------------------------
 Symbolic Z-matrix:
 Charge =  0 Multiplicity = 6

 SCF Done:  E(UB97D) =  -3034.60524903     A.U. after    1 cycles
 SCF Done:  E(UBHandHLYP) =  -3033.99421516     A.U. after   16 cycles
 SCF Done:  E(UBHandH) =  -3026.33166401     A.U. after   14 cycles
 SCF Done:  E(ULC-wPBE) =  -3033.47563449     A.U. after   20 cycles
 SCF Done:  E(UB-P86) =  -3034.65310516     A.U. after   17 cycles
 SCF Done:  E(UmPW1LYP) =  -3034.07087864     A.U. after   13 cycles
 SCF Done:  E(UmPW1PBE) =  -3033.90902941     A.U. after   13 cycles
 SCF Done:  E(UmPW3PBE) =  -3033.68200570     A.U. after   13 cycles
 SCF Done:  E(UM11) =  -3033.83322008     A.U. after   17 cycles
 SCF Done:  E(UN12SX) =  -3033.27348635     A.U. after   16 cycles
 SCF Done:  E(UMN12SX) =  -3033.67569463     A.U. after   16 cycles
 SCF Done:  E(UB1B95) =  -3034.40510243     A.U. after   14 cycles
 Normal termination of Gaussian 16 at Tue Feb 11 22:34:13 2020.
 SCF Done:  E(UB3PW91) =  -3033.99813301     A.U. after   13 cycles
 Normal termination of Gaussian 16 at Tue Feb 11 22:47:43 2020.
 SCF Done:  E(UM06L) =  -3034.22052743     A.U. after   17 cycles
 Normal termination of Gaussian 16 at Tue Feb 11 23:08:25 2020.
 Gaussian 16:  ES64L-G16RevA.03 25-Dec-2016

                         Standard orientation:
 ---------------------------------------------------------------------
 Center     Atomic      Atomic             Coordinates (Angstroms)
 Number     Number       Type             X           Y           Z
 ---------------------------------------------------------------------
      1          8           0        0.207093    0.359968   -0.865840
      2          6           0        1.003226    1.311853   -0.672786
      3          6           0        3.043444    0.132582    0.539378
      4          6           0        2.642041   -0.945598   -0.166508
      5          6           0        3.125820   -1.194090   -1.568638
      6         26           0       -1.477662   -0.158765    0.010721
      7         17           0       -2.062822   -2.000427   -0.987658
      8          6           0        1.717780   -2.001416    0.363130
      9         17           0       -2.713306    1.596696   -0.414859
     10         17           0       -1.090358   -0.389909    2.160019
     11          1           0        3.766119    0.796937    0.065087
     12          1           0        2.242991   -2.964823    0.410417
     13          1           0        1.320216   -1.781643    1.353398
     14          1           0        0.873243   -2.148189   -0.322364
     15          1           0        3.642804   -2.161176   -1.619068
     16          1           0        2.280577   -1.261205   -2.266729
     17          1           0        3.819575   -0.423926   -1.917181
     18          6           0        2.818908    0.368982    2.010184
     19          1           0        3.614990   -0.114151    2.592896
     20          1           0        2.855271    1.434586    2.255815
     21          1           0        1.865249   -0.027156    2.367499
     22          6           0        0.826413    2.234631    0.492632
     23          1           0        1.713552    2.841544    0.676200
     24          1           0       -0.004787    2.902979    0.221678
     25          1           0        0.529567    1.699627    1.394761
     26          6           0        1.822031    1.785680   -1.836258
     27          1           0        1.221349    2.565249   -2.327882
     28          1           0        2.763959    2.238719   -1.524581
     29          1           0        1.990082    0.986921   -2.556305
 ---------------------------------------------------------------------

 SCF Done:  E(UB97D3) =  -3034.64002327     A.U. after   16 cycles
 Normal termination of Gaussian 16 at Tue Feb 11 23:21:07 2020.
