 Gaussian 16, Revision A.03,

 --------------------------------
 #t pop=none jul-cc-pvdz upbe1pbe
 --------------------------------
 ------------------------
 theory_abbreviation pbe0
 ------------------------
 Symbolic Z-matrix:
 Charge =  0 Multiplicity = 6

 SCF Done:  E(UPBE1PBE) =  -3033.12363232     A.U. after   21 cycles
 Normal termination of Gaussian 16 at Tue Feb 11 23:38:44 2020.

 ---------------------------------------------------------------------
 #t pop=none jul-cc-pvdz guess=read upbe1pbe empiricaldispersion=gd3bj
 ---------------------------------------------------------------------
 -----------------------------
 theory_abbreviation pbe0_d3bj
 -----------------------------
 Symbolic Z-matrix:
 Charge =  0 Multiplicity = 6

 SCF Done:  E(UPBE1PBE) =  -3033.16117610     A.U. after    1 cycles
 Normal termination of Gaussian 16 at Tue Feb 11 23:39:53 2020.

 -----------------------------------------
 #t pop=none jul-cc-pvdz guess=read ub3lyp
 -----------------------------------------
 -------------------------
 theory_abbreviation b3lyp
 -------------------------
 Symbolic Z-matrix:
 Charge =  0 Multiplicity = 6

 SCF Done:  E(UB3LYP) =  -3034.33967897     A.U. after   13 cycles
 Normal termination of Gaussian 16 at Tue Feb 11 23:52:47 2020.

 -------------------------------------------------------------------
 #t pop=none jul-cc-pvdz guess=read ub3lyp empiricaldispersion=gd3bj
 -------------------------------------------------------------------
 ------------------------------
 theory_abbreviation b3lyp_d3bj
 ------------------------------
 Symbolic Z-matrix:
 Charge =  0 Multiplicity = 6

 SCF Done:  E(UB3LYP) =  -3034.40955835     A.U. after    1 cycles
 Normal termination of Gaussian 16 at Tue Feb 11 23:53:53 2020.

 ----------------------------------------
 #t pop=none jul-cc-pvdz guess=read ub97d
 ----------------------------------------
 ------------------------
 theory_abbreviation b97d
 ------------------------
 Symbolic Z-matrix:
 Charge =  0 Multiplicity = 6

 SCF Done:  E(UB97D) =  -3034.59325006     A.U. after   15 cycles

 ----------------------------------------------------------------
 #t pop=none jul-cc-pvdz guess=read ub97d empiricaldispersion=gd3
 ----------------------------------------------------------------
 -------------------------
 theory_abbreviation b97d3
 -------------------------
 Symbolic Z-matrix:
 Charge =  0 Multiplicity = 6

 SCF Done:  E(UB97D) =  -3034.59448164     A.U. after    1 cycles
 SCF Done:  E(UBHandHLYP) =  -3033.98080929     A.U. after   18 cycles
 SCF Done:  E(UBHandH) =  -3026.32315305     A.U. after   14 cycles
 SCF Done:  E(ULC-wPBE) =  -3033.46408292     A.U. after   19 cycles
 SCF Done:  E(UB-P86) =  -3034.64415911     A.U. after   16 cycles
 SCF Done:  E(UmPW1LYP) =  -3034.05786047     A.U. after   13 cycles
 SCF Done:  E(UmPW1PBE) =  -3033.89801815     A.U. after   14 cycles
 SCF Done:  E(UmPW3PBE) =  -3033.67089919     A.U. after   13 cycles
 SCF Done:  E(UM11) =  -3033.82167411     A.U. after   17 cycles
 SCF Done:  E(UN12SX) =  -3033.26261448     A.U. after   17 cycles
 SCF Done:  E(UMN12SX) =  -3033.66359638     A.U. after   16 cycles
 SCF Done:  E(UB1B95) =  -3034.39361950     A.U. after   14 cycles
 Normal termination of Gaussian 16 at Wed Feb 12 07:59:15 2020.
 SCF Done:  E(UB3PW91) =  -3033.98666101     A.U. after   13 cycles
 Normal termination of Gaussian 16 at Wed Feb 12 08:12:17 2020.
 SCF Done:  E(UM06L) =  -3034.20850005     A.U. after   17 cycles
 Normal termination of Gaussian 16 at Wed Feb 12 08:30:38 2020.
 Gaussian 16:  ES64L-G16RevA.03 25-Dec-2016

                         Standard orientation:
 ---------------------------------------------------------------------
 Center     Atomic      Atomic             Coordinates (Angstroms)
 Number     Number       Type             X           Y           Z
 ---------------------------------------------------------------------
      1          8           0       -0.276528   -0.240761   -0.804073
      2          6           0       -1.125813   -1.172902   -0.644122
      3          6           0       -2.940029   -0.176580    0.468742
      4          6           0       -2.535927    0.971156   -0.134088
      5          6           0       -2.988185    1.345597   -1.513977
      6         26           0        1.446154    0.129135    0.006876
      7         17           0        2.061390    2.028534   -0.873917
      8          6           0       -1.628993    1.970045    0.510537
      9         17           0        2.625052   -1.621747   -0.581966
     10         17           0        1.153475    0.227335    2.190041
     11          1           0       -3.679289   -0.777640   -0.058134
     12          1           0       -2.188213    2.898698    0.689581
     13          1           0       -1.206842    1.638174    1.457776
     14          1           0       -0.806542    2.231181   -0.166213
     15          1           0       -3.452050    2.339786   -1.487707
     16          1           0       -2.126466    1.425469   -2.189749
     17          1           0       -3.714940    0.643411   -1.929301
     18          6           0       -2.801290   -0.469566    1.942821
     19          1           0       -3.588613    0.058592    2.496551
     20          1           0       -2.925459   -1.534770    2.153595
     21          1           0       -1.841049   -0.151965    2.355894
     22          6           0       -0.899780   -2.208492    0.421781
     23          1           0       -1.775717   -2.838007    0.582812
     24          1           0       -0.083220   -2.839648    0.041040
     25          1           0       -0.559401   -1.771674    1.359831
     26          6           0       -1.863258   -1.630443   -1.876039
     27          1           0       -1.177030   -2.323023   -2.383800
     28          1           0       -2.779458   -2.174879   -1.642792
     29          1           0       -2.062432   -0.808114   -2.560203
 ---------------------------------------------------------------------

 SCF Done:  E(UB97D3) =  -3034.62972876     A.U. after   17 cycles
 Normal termination of Gaussian 16 at Wed Feb 12 08:43:58 2020.
