 Gaussian 16, Revision A.03,

 --------------------------------
 #t pop=none jul-cc-pvdz upbe1pbe
 --------------------------------
 ------------------------
 theory_abbreviation pbe0
 ------------------------
 Symbolic Z-matrix:
 Charge =  0 Multiplicity = 6

 SCF Done:  E(UPBE1PBE) =  -3033.10482471     A.U. after   20 cycles
 Normal termination of Gaussian 16 at Tue Feb 11 14:05:16 2020.

 ---------------------------------------------------------------------
 #t pop=none jul-cc-pvdz guess=read upbe1pbe empiricaldispersion=gd3bj
 ---------------------------------------------------------------------
 -----------------------------
 theory_abbreviation pbe0_d3bj
 -----------------------------
 Symbolic Z-matrix:
 Charge =  0 Multiplicity = 6

 SCF Done:  E(UPBE1PBE) =  -3033.14218421     A.U. after    1 cycles
 Normal termination of Gaussian 16 at Tue Feb 11 14:07:49 2020.

 -----------------------------------------
 #t pop=none jul-cc-pvdz guess=read ub3lyp
 -----------------------------------------
 -------------------------
 theory_abbreviation b3lyp
 -------------------------
 Symbolic Z-matrix:
 Charge =  0 Multiplicity = 6

 SCF Done:  E(UB3LYP) =  -3034.31604178     A.U. after   13 cycles
 Normal termination of Gaussian 16 at Tue Feb 11 14:24:49 2020.

 -------------------------------------------------------------------
 #t pop=none jul-cc-pvdz guess=read ub3lyp empiricaldispersion=gd3bj
 -------------------------------------------------------------------
 ------------------------------
 theory_abbreviation b3lyp_d3bj
 ------------------------------
 Symbolic Z-matrix:
 Charge =  0 Multiplicity = 6

 SCF Done:  E(UB3LYP) =  -3034.38571096     A.U. after    1 cycles
 Normal termination of Gaussian 16 at Tue Feb 11 14:26:41 2020.

 ----------------------------------------
 #t pop=none jul-cc-pvdz guess=read ub97d
 ----------------------------------------
 ------------------------
 theory_abbreviation b97d
 ------------------------
 Symbolic Z-matrix:
 Charge =  0 Multiplicity = 6

 SCF Done:  E(UB97D) =  -3034.56675766     A.U. after   15 cycles

 ----------------------------------------------------------------
 #t pop=none jul-cc-pvdz guess=read ub97d empiricaldispersion=gd3
 ----------------------------------------------------------------
 -------------------------
 theory_abbreviation b97d3
 -------------------------
 Symbolic Z-matrix:
 Charge =  0 Multiplicity = 6

 SCF Done:  E(UB97D) =  -3034.56739364     A.U. after    2 cycles
 SCF Done:  E(UBHandHLYP) =  -3033.96174196     A.U. after   15 cycles
 SCF Done:  E(UBHandH) =  -3026.31186604     A.U. after   13 cycles
 SCF Done:  E(ULC-wPBE) =  -3033.44995659     A.U. after   16 cycles
 SCF Done:  E(UB-P86) =  -3034.62189543     A.U. after   17 cycles
 SCF Done:  E(UmPW1LYP) =  -3034.03478088     A.U. after   13 cycles
 SCF Done:  E(UmPW1PBE) =  -3033.87904654     A.U. after   13 cycles
 SCF Done:  E(UmPW3PBE) =  -3033.65083163     A.U. after   13 cycles
 SCF Done:  E(UM11) =  -3033.80270407     A.U. after   16 cycles
 SCF Done:  E(UN12SX) =  -3033.24492752     A.U. after   15 cycles
 SCF Done:  E(UMN12SX) =  -3033.64255471     A.U. after   16 cycles
 SCF Done:  E(UB1B95) =  -3034.37135487     A.U. after   14 cycles
 Normal termination of Gaussian 16 at Wed Feb 12 00:16:56 2020.
 SCF Done:  E(UB3PW91) =  -3033.96596552     A.U. after   13 cycles
 Normal termination of Gaussian 16 at Wed Feb 12 00:30:02 2020.
 SCF Done:  E(UM06L) =  -3034.18340945     A.U. after   18 cycles
 Normal termination of Gaussian 16 at Wed Feb 12 00:49:57 2020.
 Gaussian 16:  ES64L-G16RevA.03 25-Dec-2016

                         Standard orientation:
 ---------------------------------------------------------------------
 Center     Atomic      Atomic             Coordinates (Angstroms)
 Number     Number       Type             X           Y           Z
 ---------------------------------------------------------------------
      1          8           0       -0.300200   -0.319615   -0.722991
      2          6           0       -1.348437   -1.205266   -0.486875
      3          6           0       -2.540331   -0.374563    0.295313
      4          6           0       -2.314766    1.023493   -0.100387
      5          6           0       -2.749403    1.504051   -1.429046
      6         26           0        1.351856    0.078120   -0.037102
      7         17           0        1.566043    2.211160   -0.721063
      8          6           0       -1.582047    1.970622    0.730111
      9         17           0        2.868193   -1.328780   -0.766366
     10         17           0        1.141544    0.056500    2.189060
     11          1           0       -3.473908   -0.717666   -0.163584
     12          1           0       -2.097607    2.938166    0.766092
     13          1           0       -1.318727    1.614294    1.722184
     14          1           0       -0.633249    2.189193    0.183266
     15          1           0       -2.980804    2.572511   -1.426720
     16          1           0       -1.859734    1.376068   -2.069784
     17          1           0       -3.567461    0.924219   -1.857663
     18          6           0       -2.586859   -0.603708    1.811136
     19          1           0       -3.321268    0.060317    2.279657
     20          1           0       -2.894991   -1.631475    2.014452
     21          1           0       -1.616207   -0.441144    2.283344
     22          6           0       -0.899215   -2.403886    0.350863
     23          1           0       -1.714089   -3.113835    0.524606
     24          1           0       -0.112384   -2.912590   -0.216723
     25          1           0       -0.472849   -2.097226    1.306635
     26          6           0       -1.888801   -1.696750   -1.835975
     27          1           0       -1.079732   -2.222195   -2.351407
     28          1           0       -2.730232   -2.385662   -1.704494
     29          1           0       -2.202523   -0.872086   -2.479871
 ---------------------------------------------------------------------

 SCF Done:  E(UB97D3) =  -3034.60211438     A.U. after   15 cycles
 Normal termination of Gaussian 16 at Wed Feb 12 01:02:04 2020.
