 Gaussian 16, Revision A.03,

 --------------------------------
 #t pop=none jul-cc-pvdz upbe1pbe
 --------------------------------
 ------------------------
 theory_abbreviation pbe0
 ------------------------
 Symbolic Z-matrix:
 Charge =  0 Multiplicity = 6

 SCF Done:  E(UPBE1PBE) =  -3033.09591011     A.U. after   20 cycles
 Normal termination of Gaussian 16 at Tue Feb 11 14:00:17 2020.

 ---------------------------------------------------------------------
 #t pop=none jul-cc-pvdz guess=read upbe1pbe empiricaldispersion=gd3bj
 ---------------------------------------------------------------------
 -----------------------------
 theory_abbreviation pbe0_d3bj
 -----------------------------
 Symbolic Z-matrix:
 Charge =  0 Multiplicity = 6

 SCF Done:  E(UPBE1PBE) =  -3033.13377128     A.U. after    1 cycles
 Normal termination of Gaussian 16 at Tue Feb 11 14:01:29 2020.

 -----------------------------------------
 #t pop=none jul-cc-pvdz guess=read ub3lyp
 -----------------------------------------
 -------------------------
 theory_abbreviation b3lyp
 -------------------------
 Symbolic Z-matrix:
 Charge =  0 Multiplicity = 6

 SCF Done:  E(UB3LYP) =  -3034.30888471     A.U. after   15 cycles
 Normal termination of Gaussian 16 at Tue Feb 11 14:17:37 2020.

 -------------------------------------------------------------------
 #t pop=none jul-cc-pvdz guess=read ub3lyp empiricaldispersion=gd3bj
 -------------------------------------------------------------------
 ------------------------------
 theory_abbreviation b3lyp_d3bj
 ------------------------------
 Symbolic Z-matrix:
 Charge =  0 Multiplicity = 6

 SCF Done:  E(UB3LYP) =  -3034.37946260     A.U. after    1 cycles
 Normal termination of Gaussian 16 at Tue Feb 11 14:18:48 2020.

 ----------------------------------------
 #t pop=none jul-cc-pvdz guess=read ub97d
 ----------------------------------------
 ------------------------
 theory_abbreviation b97d
 ------------------------
 Symbolic Z-matrix:
 Charge =  0 Multiplicity = 6

 SCF Done:  E(UB97D) =  -3034.56186946     A.U. after   16 cycles

 ----------------------------------------------------------------
 #t pop=none jul-cc-pvdz guess=read ub97d empiricaldispersion=gd3
 ----------------------------------------------------------------
 -------------------------
 theory_abbreviation b97d3
 -------------------------
 Symbolic Z-matrix:
 Charge =  0 Multiplicity = 6

 SCF Done:  E(UB97D) =  -3034.56328565     A.U. after    1 cycles
 SCF Done:  E(UBHandHLYP) =  -3033.95113232     A.U. after   18 cycles
 SCF Done:  E(UBHandH) =  -3026.29872866     A.U. after   14 cycles
 SCF Done:  E(ULC-wPBE) =  -3033.43623795     A.U. after   19 cycles
 SCF Done:  E(UB-P86) =  -3034.61627373     A.U. after   17 cycles
 SCF Done:  E(UmPW1LYP) =  -3034.02706650     A.U. after   15 cycles
 SCF Done:  E(UmPW1PBE) =  -3033.87036883     A.U. after   15 cycles
 SCF Done:  E(UmPW3PBE) =  -3033.64275325     A.U. after   13 cycles
 SCF Done:  E(UM11) =  -3033.79287866     A.U. after   19 cycles
 SCF Done:  E(UN12SX) =  -3033.23585104     A.U. after   16 cycles
 SCF Done:  E(UMN12SX) =  -3033.63498341     A.U. after   15 cycles
 SCF Done:  E(UB1B95) =  -3034.36527975     A.U. after   16 cycles
 Normal termination of Gaussian 16 at Tue Feb 11 23:00:02 2020.
 SCF Done:  E(UB3PW91) =  -3033.95808566     A.U. after   15 cycles
 Normal termination of Gaussian 16 at Tue Feb 11 23:16:08 2020.
 SCF Done:  E(UM06L) =  -3034.17618354     A.U. after   17 cycles
 Normal termination of Gaussian 16 at Tue Feb 11 23:35:30 2020.
 Gaussian 16:  ES64L-G16RevA.03 25-Dec-2016

                         Standard orientation:
 ---------------------------------------------------------------------
 Center     Atomic      Atomic             Coordinates (Angstroms)
 Number     Number       Type             X           Y           Z
 ---------------------------------------------------------------------
      1          8           0       -0.363357   -0.072922   -0.489398
      2          6           0       -1.270669   -1.035240   -0.443305
      3          6           0       -3.067706    0.007225   -0.136842
      4          6           0       -2.170834    1.062757   -0.232990
      5          6           0       -1.945670    1.761021   -1.533635
      6         26           0        1.436536    0.049459    0.053395
      7         17           0        2.025178    1.993175   -0.796098
      8          6           0       -1.603343    1.732663    0.976460
      9         17           0        2.376084   -1.757588   -0.785636
     10         17           0        1.428555    0.040759    2.264230
     11          1           0       -3.591332   -0.255186   -1.053458
     12          1           0       -2.369183    2.429792    1.348412
     13          1           0       -1.370817    1.038240    1.784691
     14          1           0       -0.705618    2.303669    0.734594
     15          1           0       -2.542581    2.685085   -1.499080
     16          1           0       -0.898268    2.042467   -1.661485
     17          1           0       -2.289627    1.179651   -2.391499
     18          6           0       -3.763709   -0.409734    1.134296
     19          1           0       -4.674299    0.188456    1.270627
     20          1           0       -4.073448   -1.458297    1.091558
     21          1           0       -3.146991   -0.274426    2.025169
     22          6           0       -1.218385   -1.948729    0.750377
     23          1           0       -2.074678   -2.622612    0.804608
     24          1           0       -0.310174   -2.554507    0.616026
     25          1           0       -1.096397   -1.397594    1.683428
     26          6           0       -1.563251   -1.689797   -1.769110
     27          1           0       -0.660964   -2.265223   -2.020635
     28          1           0       -2.417253   -2.369413   -1.720363
     29          1           0       -1.706927   -0.951543   -2.559616
 ---------------------------------------------------------------------

 SCF Done:  E(UB97D3) =  -3034.59901385     A.U. after   16 cycles
 Normal termination of Gaussian 16 at Tue Feb 11 23:48:38 2020.
