 Gaussian 16, Revision A.03,

 --------------------------------
 #t pop=none jul-cc-pvdz upbe1pbe
 --------------------------------
 ------------------------
 theory_abbreviation pbe0
 ------------------------
 Symbolic Z-matrix:
 Charge =  0 Multiplicity = 6

 SCF Done:  E(UPBE1PBE) =  -3033.11546415     A.U. after   21 cycles
 Normal termination of Gaussian 16 at Tue Feb 11 20:06:42 2020.

 ---------------------------------------------------------------------
 #t pop=none jul-cc-pvdz guess=read upbe1pbe empiricaldispersion=gd3bj
 ---------------------------------------------------------------------
 -----------------------------
 theory_abbreviation pbe0_d3bj
 -----------------------------
 Symbolic Z-matrix:
 Charge =  0 Multiplicity = 6

 SCF Done:  E(UPBE1PBE) =  -3033.15323877     A.U. after    1 cycles
 Normal termination of Gaussian 16 at Tue Feb 11 20:07:54 2020.

 -----------------------------------------
 #t pop=none jul-cc-pvdz guess=read ub3lyp
 -----------------------------------------
 -------------------------
 theory_abbreviation b3lyp
 -------------------------
 Symbolic Z-matrix:
 Charge =  0 Multiplicity = 6

 SCF Done:  E(UB3LYP) =  -3034.33072390     A.U. after   13 cycles
 Normal termination of Gaussian 16 at Tue Feb 11 20:21:33 2020.

 -------------------------------------------------------------------
 #t pop=none jul-cc-pvdz guess=read ub3lyp empiricaldispersion=gd3bj
 -------------------------------------------------------------------
 ------------------------------
 theory_abbreviation b3lyp_d3bj
 ------------------------------
 Symbolic Z-matrix:
 Charge =  0 Multiplicity = 6

 SCF Done:  E(UB3LYP) =  -3034.40106922     A.U. after    1 cycles
 Normal termination of Gaussian 16 at Tue Feb 11 20:22:43 2020.

 ----------------------------------------
 #t pop=none jul-cc-pvdz guess=read ub97d
 ----------------------------------------
 ------------------------
 theory_abbreviation b97d
 ------------------------
 Symbolic Z-matrix:
 Charge =  0 Multiplicity = 6

 SCF Done:  E(UB97D) =  -3034.58371525     A.U. after   15 cycles

 ----------------------------------------------------------------
 #t pop=none jul-cc-pvdz guess=read ub97d empiricaldispersion=gd3
 ----------------------------------------------------------------
 -------------------------
 theory_abbreviation b97d3
 -------------------------
 Symbolic Z-matrix:
 Charge =  0 Multiplicity = 6

 SCF Done:  E(UB97D) =  -3034.58551760     A.U. after    1 cycles
 SCF Done:  E(UBHandHLYP) =  -3033.97246855     A.U. after   18 cycles
 SCF Done:  E(UBHandH) =  -3026.31621808     A.U. after   14 cycles
 SCF Done:  E(ULC-wPBE) =  -3033.45627062     A.U. after   19 cycles
 SCF Done:  E(UB-P86) =  -3034.63601685     A.U. after   16 cycles
 SCF Done:  E(UmPW1LYP) =  -3034.04890081     A.U. after   14 cycles
 SCF Done:  E(UmPW1PBE) =  -3033.88994347     A.U. after   14 cycles
 SCF Done:  E(UmPW3PBE) =  -3033.66265567     A.U. after   13 cycles
 SCF Done:  E(UM11) =  -3033.81333372     A.U. after   17 cycles
 SCF Done:  E(UN12SX) =  -3033.25444817     A.U. after   17 cycles
 SCF Done:  E(UMN12SX) =  -3033.65534975     A.U. after   16 cycles
 SCF Done:  E(UB1B95) =  -3034.38569231     A.U. after   14 cycles
 Normal termination of Gaussian 16 at Wed Feb 12 04:49:43 2020.
 SCF Done:  E(UB3PW91) =  -3033.97833489     A.U. after   14 cycles
 Normal termination of Gaussian 16 at Wed Feb 12 05:04:18 2020.
 SCF Done:  E(UM06L) =  -3034.19971903     A.U. after   17 cycles
 Normal termination of Gaussian 16 at Wed Feb 12 05:23:38 2020.
 Gaussian 16:  ES64L-G16RevA.03 25-Dec-2016

                         Standard orientation:
 ---------------------------------------------------------------------
 Center     Atomic      Atomic             Coordinates (Angstroms)
 Number     Number       Type             X           Y           Z
 ---------------------------------------------------------------------
      1          8           0       -0.314666   -0.144791   -0.655410
      2          6           0       -1.176897   -1.080264   -0.571943
      3          6           0       -3.155047   -0.004548    0.100557
      4          6           0       -2.348289    1.046066   -0.201299
      5          6           0       -2.313901    1.641387   -1.575939
      6         26           0        1.462371    0.078136    0.052620
      7         17           0        2.092454    1.996391   -0.784524
      8          6           0       -1.559646    1.794319    0.830387
      9         17           0        2.473619   -1.713967   -0.714374
     10         17           0        1.344976    0.067605    2.250855
     11          1           0       -3.779541   -0.395219   -0.700492
     12          1           0       -2.187467    2.609523    1.217465
     13          1           0       -1.254703    1.181744    1.679482
     14          1           0       -0.668991    2.253203    0.393252
     15          1           0       -2.622604    2.692881   -1.509428
     16          1           0       -1.292427    1.637273   -1.971398
     17          1           0       -2.986531    1.137460   -2.274514
     18          6           0       -3.539301   -0.449795    1.486026
     19          1           0       -4.455446    0.071536    1.795036
     20          1           0       -3.759089   -1.521127    1.523918
     21          1           0       -2.774574   -0.230808    2.234736
     22          6           0       -1.107461   -2.030953    0.586985
     23          1           0       -1.990981   -2.664267    0.666097
     24          1           0       -0.238694   -2.674555    0.381370
     25          1           0       -0.908854   -1.515709    1.526936
     26          6           0       -1.731760   -1.606120   -1.867665
     27          1           0       -0.942837   -2.253706   -2.277365
     28          1           0       -2.632448   -2.205954   -1.728209
     29          1           0       -1.903153   -0.806511   -2.587634
 ---------------------------------------------------------------------

 SCF Done:  E(UB97D3) =  -3034.62117961     A.U. after   17 cycles
 Normal termination of Gaussian 16 at Wed Feb 12 05:37:57 2020.
