 Gaussian 16, Revision A.03,

 --------------------------------
 #t pop=none jul-cc-pvdz upbe1pbe
 --------------------------------
 ------------------------
 theory_abbreviation pbe0
 ------------------------
 Symbolic Z-matrix:
 Charge =  0 Multiplicity = 6

 SCF Done:  E(UPBE1PBE) =  -3033.11055630     A.U. after   21 cycles
 Normal termination of Gaussian 16 at Tue Feb 11 14:00:02 2020.

 ---------------------------------------------------------------------
 #t pop=none jul-cc-pvdz guess=read upbe1pbe empiricaldispersion=gd3bj
 ---------------------------------------------------------------------
 -----------------------------
 theory_abbreviation pbe0_d3bj
 -----------------------------
 Symbolic Z-matrix:
 Charge =  0 Multiplicity = 6

 SCF Done:  E(UPBE1PBE) =  -3033.14826523     A.U. after    1 cycles
 Normal termination of Gaussian 16 at Tue Feb 11 14:01:14 2020.

 -----------------------------------------
 #t pop=none jul-cc-pvdz guess=read ub3lyp
 -----------------------------------------
 -------------------------
 theory_abbreviation b3lyp
 -------------------------
 Symbolic Z-matrix:
 Charge =  0 Multiplicity = 6

 SCF Done:  E(UB3LYP) =  -3034.32445010     A.U. after   13 cycles
 Normal termination of Gaussian 16 at Tue Feb 11 14:15:22 2020.

 -------------------------------------------------------------------
 #t pop=none jul-cc-pvdz guess=read ub3lyp empiricaldispersion=gd3bj
 -------------------------------------------------------------------
 ------------------------------
 theory_abbreviation b3lyp_d3bj
 ------------------------------
 Symbolic Z-matrix:
 Charge =  0 Multiplicity = 6

 SCF Done:  E(UB3LYP) =  -3034.39475454     A.U. after    1 cycles
 Normal termination of Gaussian 16 at Tue Feb 11 14:16:34 2020.

 ----------------------------------------
 #t pop=none jul-cc-pvdz guess=read ub97d
 ----------------------------------------
 ------------------------
 theory_abbreviation b97d
 ------------------------
 Symbolic Z-matrix:
 Charge =  0 Multiplicity = 6

 SCF Done:  E(UB97D) =  -3034.57816314     A.U. after   15 cycles

 ----------------------------------------------------------------
 #t pop=none jul-cc-pvdz guess=read ub97d empiricaldispersion=gd3
 ----------------------------------------------------------------
 -------------------------
 theory_abbreviation b97d3
 -------------------------
 Symbolic Z-matrix:
 Charge =  0 Multiplicity = 6

 SCF Done:  E(UB97D) =  -3034.57896846     A.U. after    1 cycles
 SCF Done:  E(UBHandHLYP) =  -3033.96615024     A.U. after   17 cycles
 SCF Done:  E(UBHandH) =  -3026.31251144     A.U. after   16 cycles
 SCF Done:  E(ULC-wPBE) =  -3033.45074969     A.U. after   19 cycles
 SCF Done:  E(UB-P86) =  -3034.63074310     A.U. after   17 cycles
 SCF Done:  E(UmPW1LYP) =  -3034.04261875     A.U. after   14 cycles
 SCF Done:  E(UmPW1PBE) =  -3033.88494265     A.U. after   14 cycles
 SCF Done:  E(UmPW3PBE) =  -3033.65750300     A.U. after   14 cycles
 SCF Done:  E(UM11) =  -3033.80864297     A.U. after   19 cycles
 SCF Done:  E(UN12SX) =  -3033.25014097     A.U. after   17 cycles
 SCF Done:  E(UMN12SX) =  -3033.64926421     A.U. after   16 cycles
 SCF Done:  E(UB1B95) =  -3034.37953148     A.U. after   16 cycles
 Normal termination of Gaussian 16 at Tue Feb 11 23:14:07 2020.
 SCF Done:  E(UB3PW91) =  -3033.97295813     A.U. after   15 cycles
 Normal termination of Gaussian 16 at Tue Feb 11 23:30:04 2020.
 SCF Done:  E(UM06L) =  -3034.19228064     A.U. after   18 cycles
 Normal termination of Gaussian 16 at Tue Feb 11 23:50:11 2020.
 Gaussian 16:  ES64L-G16RevA.03 25-Dec-2016

                         Standard orientation:
 ---------------------------------------------------------------------
 Center     Atomic      Atomic             Coordinates (Angstroms)
 Number     Number       Type             X           Y           Z
 ---------------------------------------------------------------------
      1          8           0       -0.322419   -0.143634   -0.706597
      2          6           0       -1.229517   -1.067134   -0.595865
      3          6           0       -2.913430   -0.184588    0.296069
      4          6           0       -2.406782    1.014591   -0.144031
      5          6           0       -2.679181    1.541270   -1.514000
      6         26           0        1.420132    0.095936    0.016542
      7         17           0        2.025746    2.062737   -0.742429
      8          6           0       -1.562363    1.897495    0.709151
      9         17           0        2.564972   -1.623170   -0.730410
     10         17           0        1.217240    0.054297    2.223997
     11          1           0       -3.657473   -0.656949   -0.341883
     12          1           0       -2.215270    2.684930    1.115811
     13          1           0       -1.096623    1.384249    1.549119
     14          1           0       -0.786661    2.393440    0.118141
     15          1           0       -3.025076    2.579366   -1.433345
     16          1           0       -1.740785    1.571071   -2.082509
     17          1           0       -3.429430    0.965369   -2.058900
     18          6           0       -3.004068   -0.551814    1.760688
     19          1           0       -3.834399   -0.002131    2.221805
     20          1           0       -3.209960   -1.616509    1.891631
     21          1           0       -2.097699   -0.309889    2.319960
     22          6           0       -0.980854   -2.172948    0.403845
     23          1           0       -1.834741   -2.844532    0.506898
     24          1           0       -0.136909   -2.745128   -0.006955
     25          1           0       -0.670088   -1.792305    1.376145
     26          6           0       -1.818978   -1.534584   -1.911715
     27          1           0       -1.028032   -2.125538   -2.391961
     28          1           0       -2.693693   -2.174336   -1.777088
     29          1           0       -2.051460   -0.705787   -2.578731
 ---------------------------------------------------------------------

 SCF Done:  E(UB97D3) =  -3034.61432226     A.U. after   15 cycles
 Normal termination of Gaussian 16 at Wed Feb 12 00:03:32 2020.
