 Gaussian 16, Revision A.03,

 --------------------------------
 #t pop=none jul-cc-pvdz upbe1pbe
 --------------------------------
 ------------------------
 theory_abbreviation pbe0
 ------------------------
 Symbolic Z-matrix:
 Charge =  0 Multiplicity = 6

 SCF Done:  E(UPBE1PBE) =  -3033.12097803     A.U. after   20 cycles
 Normal termination of Gaussian 16 at Tue Feb 11 13:58:54 2020.

 ---------------------------------------------------------------------
 #t pop=none jul-cc-pvdz guess=read upbe1pbe empiricaldispersion=gd3bj
 ---------------------------------------------------------------------
 -----------------------------
 theory_abbreviation pbe0_d3bj
 -----------------------------
 Symbolic Z-matrix:
 Charge =  0 Multiplicity = 6

 SCF Done:  E(UPBE1PBE) =  -3033.15866080     A.U. after    1 cycles
 Normal termination of Gaussian 16 at Tue Feb 11 14:00:04 2020.

 -----------------------------------------
 #t pop=none jul-cc-pvdz guess=read ub3lyp
 -----------------------------------------
 -------------------------
 theory_abbreviation b3lyp
 -------------------------
 Symbolic Z-matrix:
 Charge =  0 Multiplicity = 6

 SCF Done:  E(UB3LYP) =  -3034.33658431     A.U. after   13 cycles
 Normal termination of Gaussian 16 at Tue Feb 11 14:13:55 2020.

 -------------------------------------------------------------------
 #t pop=none jul-cc-pvdz guess=read ub3lyp empiricaldispersion=gd3bj
 -------------------------------------------------------------------
 ------------------------------
 theory_abbreviation b3lyp_d3bj
 ------------------------------
 Symbolic Z-matrix:
 Charge =  0 Multiplicity = 6

 SCF Done:  E(UB3LYP) =  -3034.40676552     A.U. after    1 cycles
 Normal termination of Gaussian 16 at Tue Feb 11 14:15:06 2020.

 ----------------------------------------
 #t pop=none jul-cc-pvdz guess=read ub97d
 ----------------------------------------
 ------------------------
 theory_abbreviation b97d
 ------------------------
 Symbolic Z-matrix:
 Charge =  0 Multiplicity = 6

 SCF Done:  E(UB97D) =  -3034.59037104     A.U. after   15 cycles

 ----------------------------------------------------------------
 #t pop=none jul-cc-pvdz guess=read ub97d empiricaldispersion=gd3
 ----------------------------------------------------------------
 -------------------------
 theory_abbreviation b97d3
 -------------------------
 Symbolic Z-matrix:
 Charge =  0 Multiplicity = 6

 SCF Done:  E(UB97D) =  -3034.59158177     A.U. after    1 cycles
 SCF Done:  E(UBHandHLYP) =  -3033.97772784     A.U. after   18 cycles
 SCF Done:  E(UBHandH) =  -3026.32101589     A.U. after   15 cycles
 SCF Done:  E(ULC-wPBE) =  -3033.46137534     A.U. after   19 cycles
 SCF Done:  E(UB-P86) =  -3034.64171322     A.U. after   16 cycles
 SCF Done:  E(UmPW1LYP) =  -3034.05474758     A.U. after   13 cycles
 SCF Done:  E(UmPW1PBE) =  -3033.89536107     A.U. after   14 cycles
 SCF Done:  E(UmPW3PBE) =  -3033.66819448     A.U. after   13 cycles
 SCF Done:  E(UM11) =  -3033.81901070     A.U. after   19 cycles
 SCF Done:  E(UN12SX) =  -3033.26004185     A.U. after   17 cycles
 SCF Done:  E(UMN12SX) =  -3033.66069591     A.U. after   16 cycles
 SCF Done:  E(UB1B95) =  -3034.39082617     A.U. after   14 cycles
 Normal termination of Gaussian 16 at Tue Feb 11 22:47:52 2020.
 SCF Done:  E(UB3PW91) =  -3033.98388612     A.U. after   14 cycles
 Normal termination of Gaussian 16 at Tue Feb 11 23:03:47 2020.
 SCF Done:  E(UM06L) =  -3034.20534936     A.U. after   17 cycles
 Normal termination of Gaussian 16 at Tue Feb 11 23:22:45 2020.
 Gaussian 16:  ES64L-G16RevA.03 25-Dec-2016

                         Standard orientation:
 ---------------------------------------------------------------------
 Center     Atomic      Atomic             Coordinates (Angstroms)
 Number     Number       Type             X           Y           Z
 ---------------------------------------------------------------------
      1          8           0       -0.289488   -0.214775   -0.786357
      2          6           0       -1.149197   -1.144794   -0.636647
      3          6           0       -2.938224   -0.174297    0.434577
      4          6           0       -2.504429    0.981535   -0.136058
      5          6           0       -2.917418    1.391619   -1.516851
      6         26           0        1.439791    0.121099    0.009606
      7         17           0        2.060718    2.034527   -0.840712
      8          6           0       -1.604820    1.955198    0.554086
      9         17           0        2.604767   -1.626339   -0.619366
     10         17           0        1.169102    0.182699    2.199262
     11          1           0       -3.679405   -0.749154   -0.117701
     12          1           0       -2.180573    2.861394    0.789256
     13          1           0       -1.171639    1.578816    1.479401
     14          1           0       -0.792684    2.267416   -0.112408
     15          1           0       -3.349238    2.399764   -1.481142
     16          1           0       -2.038286    1.455743   -2.171333
     17          1           0       -3.656919    0.720152   -1.959112
     18          6           0       -2.846190   -0.486973    1.908600
     19          1           0       -3.642137    0.045895    2.445046
     20          1           0       -2.990325   -1.552790    2.102269
     21          1           0       -1.894259   -0.187062    2.352925
     22          6           0       -0.920663   -2.196333    0.415034
     23          1           0       -1.793261   -2.833672    0.563362
     24          1           0       -0.099377   -2.816382    0.026641
     25          1           0       -0.585654   -1.772811    1.361014
     26          6           0       -1.860056   -1.603906   -1.885475
     27          1           0       -1.152236   -2.276886   -2.389472
     28          1           0       -2.769078   -2.168230   -1.671565
     29          1           0       -2.065605   -0.779930   -2.565803
 ---------------------------------------------------------------------

 SCF Done:  E(UB97D3) =  -3034.62695361     A.U. after   17 cycles
 Normal termination of Gaussian 16 at Tue Feb 11 23:36:23 2020.
