 Gaussian 16, Revision A.03,

 --------------------------------
 #t pop=none jul-cc-pvdz upbe1pbe
 --------------------------------
 ------------------------
 theory_abbreviation pbe0
 ------------------------
 Symbolic Z-matrix:
 Charge =  0 Multiplicity = 6

 SCF Done:  E(UPBE1PBE) =  -3033.12755540     A.U. after   21 cycles
 Normal termination of Gaussian 16 at Tue Feb 11 14:00:03 2020.

 ---------------------------------------------------------------------
 #t pop=none jul-cc-pvdz guess=read upbe1pbe empiricaldispersion=gd3bj
 ---------------------------------------------------------------------
 -----------------------------
 theory_abbreviation pbe0_d3bj
 -----------------------------
 Symbolic Z-matrix:
 Charge =  0 Multiplicity = 6

 SCF Done:  E(UPBE1PBE) =  -3033.16485795     A.U. after    1 cycles
 Normal termination of Gaussian 16 at Tue Feb 11 14:01:14 2020.

 -----------------------------------------
 #t pop=none jul-cc-pvdz guess=read ub3lyp
 -----------------------------------------
 -------------------------
 theory_abbreviation b3lyp
 -------------------------
 Symbolic Z-matrix:
 Charge =  0 Multiplicity = 6

 SCF Done:  E(UB3LYP) =  -3034.34426231     A.U. after   13 cycles
 Normal termination of Gaussian 16 at Tue Feb 11 14:15:05 2020.

 -------------------------------------------------------------------
 #t pop=none jul-cc-pvdz guess=read ub3lyp empiricaldispersion=gd3bj
 -------------------------------------------------------------------
 ------------------------------
 theory_abbreviation b3lyp_d3bj
 ------------------------------
 Symbolic Z-matrix:
 Charge =  0 Multiplicity = 6

 SCF Done:  E(UB3LYP) =  -3034.41361080     A.U. after    1 cycles
 Normal termination of Gaussian 16 at Tue Feb 11 14:16:15 2020.

 ----------------------------------------
 #t pop=none jul-cc-pvdz guess=read ub97d
 ----------------------------------------
 ------------------------
 theory_abbreviation b97d
 ------------------------
 Symbolic Z-matrix:
 Charge =  0 Multiplicity = 6

 SCF Done:  E(UB97D) =  -3034.59721448     A.U. after   15 cycles

 ----------------------------------------------------------------
 #t pop=none jul-cc-pvdz guess=read ub97d empiricaldispersion=gd3
 ----------------------------------------------------------------
 -------------------------
 theory_abbreviation b97d3
 -------------------------
 Symbolic Z-matrix:
 Charge =  0 Multiplicity = 6

 SCF Done:  E(UB97D) =  -3034.59853634     A.U. after    1 cycles
 SCF Done:  E(UBHandHLYP) =  -3033.98558737     A.U. after   18 cycles
 SCF Done:  E(UBHandH) =  -3026.32637434     A.U. after   14 cycles
 SCF Done:  E(ULC-wPBE) =  -3033.46828827     A.U. after   19 cycles
 SCF Done:  E(UB-P86) =  -3034.64754074     A.U. after   16 cycles
 SCF Done:  E(UmPW1LYP) =  -3034.06250013     A.U. after   13 cycles
 SCF Done:  E(UmPW1PBE) =  -3033.90194960     A.U. after   13 cycles
 SCF Done:  E(UmPW3PBE) =  -3033.67487085     A.U. after   13 cycles
 SCF Done:  E(UM11) =  -3033.82581950     A.U. after   17 cycles
 SCF Done:  E(UN12SX) =  -3033.26644206     A.U. after   17 cycles
 SCF Done:  E(UMN12SX) =  -3033.66801900     A.U. after   16 cycles
 SCF Done:  E(UB1B95) =  -3034.39779088     A.U. after   14 cycles
 Normal termination of Gaussian 16 at Tue Feb 11 22:44:43 2020.
 SCF Done:  E(UB3PW91) =  -3033.99074970     A.U. after   13 cycles
 Normal termination of Gaussian 16 at Tue Feb 11 22:59:30 2020.
 SCF Done:  E(UM06L) =  -3034.21311695     A.U. after   17 cycles
 Normal termination of Gaussian 16 at Tue Feb 11 23:18:23 2020.
 Gaussian 16:  ES64L-G16RevA.03 25-Dec-2016

                         Standard orientation:
 ---------------------------------------------------------------------
 Center     Atomic      Atomic             Coordinates (Angstroms)
 Number     Number       Type             X           Y           Z
 ---------------------------------------------------------------------
      1          8           0       -0.259047   -0.275285   -0.824060
      2          6           0       -1.088220   -1.215131   -0.654849
      3          6           0       -2.979309   -0.152762    0.484297
      4          6           0       -2.558751    0.967997   -0.149053
      5          6           0       -3.005802    1.306436   -1.541678
      6         26           0        1.455390    0.136506    0.010647
      7         17           0        2.069607    2.014029   -0.909881
      8          6           0       -1.646746    1.981801    0.468546
      9         17           0        2.642305   -1.623937   -0.527995
     10         17           0        1.134929    0.277927    2.183916
     11          1           0       -3.710602   -0.771213   -0.034447
     12          1           0       -2.190942    2.927032    0.599548
     13          1           0       -1.244412    1.683683    1.435649
     14          1           0       -0.808695    2.201608   -0.204174
     15          1           0       -3.479648    2.296369   -1.544434
     16          1           0       -2.142812    1.376280   -2.217065
     17          1           0       -3.724560    0.587420   -1.942858
     18          6           0       -2.825855   -0.432404    1.958235
     19          1           0       -3.618964    0.083085    2.516111
     20          1           0       -2.927926   -1.498617    2.177906
     21          1           0       -1.868814   -0.093695    2.362275
     22          6           0       -0.884890   -2.209488    0.450236
     23          1           0       -1.766396   -2.829117    0.618144
     24          1           0       -0.063229   -2.857757    0.110724
     25          1           0       -0.561121   -1.736756    1.376906
     26          6           0       -1.851726   -1.680664   -1.863984
     27          1           0       -1.191688   -2.403487   -2.365157
     28          1           0       -2.777609   -2.195877   -1.604991
     29          1           0       -2.038866   -0.866871   -2.561678
 ---------------------------------------------------------------------

 SCF Done:  E(UB97D3) =  -3034.63359343     A.U. after   16 cycles
 Normal termination of Gaussian 16 at Tue Feb 11 23:31:05 2020.
