 Gaussian 16, Revision A.03,

 --------------------------------
 #t pop=none jul-cc-pvdz upbe1pbe
 --------------------------------
 ------------------------
 theory_abbreviation pbe0
 ------------------------
 Symbolic Z-matrix:
 Charge =  0 Multiplicity = 6

 SCF Done:  E(UPBE1PBE) =  -3033.10414938     A.U. after   20 cycles
 Normal termination of Gaussian 16 at Tue Feb 11 13:58:02 2020.

 ---------------------------------------------------------------------
 #t pop=none jul-cc-pvdz guess=read upbe1pbe empiricaldispersion=gd3bj
 ---------------------------------------------------------------------
 -----------------------------
 theory_abbreviation pbe0_d3bj
 -----------------------------
 Symbolic Z-matrix:
 Charge =  0 Multiplicity = 6

 SCF Done:  E(UPBE1PBE) =  -3033.14095745     A.U. after    1 cycles
 Normal termination of Gaussian 16 at Tue Feb 11 13:59:14 2020.

 -----------------------------------------
 #t pop=none jul-cc-pvdz guess=read ub3lyp
 -----------------------------------------
 -------------------------
 theory_abbreviation b3lyp
 -------------------------
 Symbolic Z-matrix:
 Charge =  0 Multiplicity = 6

 SCF Done:  E(UB3LYP) =  -3034.31800098     A.U. after   13 cycles
 Normal termination of Gaussian 16 at Tue Feb 11 14:13:15 2020.

 -------------------------------------------------------------------
 #t pop=none jul-cc-pvdz guess=read ub3lyp empiricaldispersion=gd3bj
 -------------------------------------------------------------------
 ------------------------------
 theory_abbreviation b3lyp_d3bj
 ------------------------------
 Symbolic Z-matrix:
 Charge =  0 Multiplicity = 6

 SCF Done:  E(UB3LYP) =  -3034.38643404     A.U. after    1 cycles
 Normal termination of Gaussian 16 at Tue Feb 11 14:14:27 2020.

 ----------------------------------------
 #t pop=none jul-cc-pvdz guess=read ub97d
 ----------------------------------------
 ------------------------
 theory_abbreviation b97d
 ------------------------
 Symbolic Z-matrix:
 Charge =  0 Multiplicity = 6

 SCF Done:  E(UB97D) =  -3034.56953548     A.U. after   15 cycles

 ----------------------------------------------------------------
 #t pop=none jul-cc-pvdz guess=read ub97d empiricaldispersion=gd3
 ----------------------------------------------------------------
 -------------------------
 theory_abbreviation b97d3
 -------------------------
 Symbolic Z-matrix:
 Charge =  0 Multiplicity = 6

 SCF Done:  E(UB97D) =  -3034.57041283     A.U. after    2 cycles
 SCF Done:  E(UBHandHLYP) =  -3033.95785645     A.U. after   17 cycles
 SCF Done:  E(UBHandH) =  -3026.30270114     A.U. after   14 cycles
 SCF Done:  E(ULC-wPBE) =  -3033.44723434     A.U. after   18 cycles
 SCF Done:  E(UB-P86) =  -3034.62558493     A.U. after   16 cycles
 SCF Done:  E(UmPW1LYP) =  -3034.03587901     A.U. after   14 cycles
 SCF Done:  E(UmPW1PBE) =  -3033.87869718     A.U. after   15 cycles
 SCF Done:  E(UmPW3PBE) =  -3033.65136598     A.U. after   14 cycles
 SCF Done:  E(UM11) =  -3033.79855431     A.U. after   16 cycles
 SCF Done:  E(UN12SX) =  -3033.24458499     A.U. after   16 cycles
 SCF Done:  E(UMN12SX) =  -3033.63875864     A.U. after   15 cycles
 SCF Done:  E(UB1B95) =  -3034.37004426     A.U. after   15 cycles
 Normal termination of Gaussian 16 at Tue Feb 11 22:43:54 2020.
 SCF Done:  E(UB3PW91) =  -3033.96680991     A.U. after   14 cycles
 Normal termination of Gaussian 16 at Tue Feb 11 22:59:29 2020.
 SCF Done:  E(UM06L) =  -3034.18049577     A.U. after   18 cycles
 Normal termination of Gaussian 16 at Tue Feb 11 23:19:29 2020.
 Gaussian 16:  ES64L-G16RevA.03 25-Dec-2016

                         Standard orientation:
 ---------------------------------------------------------------------
 Center     Atomic      Atomic             Coordinates (Angstroms)
 Number     Number       Type             X           Y           Z
 ---------------------------------------------------------------------
      1          8           0        0.443436    0.149341   -0.467633
      2          6           0        1.381243    1.242541   -0.355965
      3          6           0        2.870731    0.074682   -0.190046
      4          6           0        1.932589   -1.098376   -0.299989
      5          6           0        1.831249   -1.800673   -1.610273
      6         26           0       -1.371612   -0.053779    0.051038
      7         17           0       -1.869461   -2.000330   -0.858676
      8          6           0        1.554140   -1.877731    0.912149
      9         17           0       -2.396901    1.717087   -0.736478
     10         17           0       -1.381417   -0.155129    2.256734
     11          1           0        3.460205    0.196894   -1.100241
     12          1           0        2.408242   -2.527747    1.156684
     13          1           0        1.355019   -1.242412    1.775365
     14          1           0        0.685234   -2.510830    0.720577
     15          1           0        2.632928   -2.555468   -1.634844
     16          1           0        0.871370   -2.312469   -1.711631
     17          1           0        1.982745   -1.118961   -2.449183
     18          6           0        3.692864    0.249985    1.067655
     19          1           0        4.452890   -0.536299    1.163518
     20          1           0        4.218905    1.209073    1.034241
     21          1           0        3.082782    0.236675    1.974220
     22          6           0        1.174670    2.070559    0.882918
     23          1           0        1.985424    2.795843    1.003446
     24          1           0        0.232929    2.626608    0.785362
     25          1           0        1.100535    1.452859    1.779711
     26          6           0        1.447788    2.019591   -1.644228
     27          1           0        0.477393    2.504124   -1.812186
     28          1           0        2.222007    2.792219   -1.596332
     29          1           0        1.646407    1.362284   -2.494829
 ---------------------------------------------------------------------

 SCF Done:  E(UB97D3) =  -3034.60536256     A.U. after   15 cycles
 Normal termination of Gaussian 16 at Tue Feb 11 23:31:39 2020.
