 Gaussian 16, Revision A.03,

 --------------------------------
 #t pop=none jul-cc-pvdz upbe1pbe
 --------------------------------
 ------------------------
 theory_abbreviation pbe0
 ------------------------
 Symbolic Z-matrix:
 Charge =  0 Multiplicity = 6

 SCF Done:  E(UPBE1PBE) =  -3033.13087849     A.U. after   21 cycles
 Normal termination of Gaussian 16 at Tue Feb 11 13:59:38 2020.

 ---------------------------------------------------------------------
 #t pop=none jul-cc-pvdz guess=read upbe1pbe empiricaldispersion=gd3bj
 ---------------------------------------------------------------------
 -----------------------------
 theory_abbreviation pbe0_d3bj
 -----------------------------
 Symbolic Z-matrix:
 Charge =  0 Multiplicity = 6

 SCF Done:  E(UPBE1PBE) =  -3033.16729660     A.U. after    1 cycles
 Normal termination of Gaussian 16 at Tue Feb 11 14:00:48 2020.

 -----------------------------------------
 #t pop=none jul-cc-pvdz guess=read ub3lyp
 -----------------------------------------
 -------------------------
 theory_abbreviation b3lyp
 -------------------------
 Symbolic Z-matrix:
 Charge =  0 Multiplicity = 6

 SCF Done:  E(UB3LYP) =  -3034.34887696     A.U. after   13 cycles
 Normal termination of Gaussian 16 at Tue Feb 11 14:14:18 2020.

 -------------------------------------------------------------------
 #t pop=none jul-cc-pvdz guess=read ub3lyp empiricaldispersion=gd3bj
 -------------------------------------------------------------------
 ------------------------------
 theory_abbreviation b3lyp_d3bj
 ------------------------------
 Symbolic Z-matrix:
 Charge =  0 Multiplicity = 6

 SCF Done:  E(UB3LYP) =  -3034.41639958     A.U. after    1 cycles
 Normal termination of Gaussian 16 at Tue Feb 11 14:15:27 2020.

 ----------------------------------------
 #t pop=none jul-cc-pvdz guess=read ub97d
 ----------------------------------------
 ------------------------
 theory_abbreviation b97d
 ------------------------
 Symbolic Z-matrix:
 Charge =  0 Multiplicity = 6

 SCF Done:  E(UB97D) =  -3034.60039411     A.U. after   15 cycles

 ----------------------------------------------------------------
 #t pop=none jul-cc-pvdz guess=read ub97d empiricaldispersion=gd3
 ----------------------------------------------------------------
 -------------------------
 theory_abbreviation b97d3
 -------------------------
 Symbolic Z-matrix:
 Charge =  0 Multiplicity = 6

 SCF Done:  E(UB97D) =  -3034.60131145     A.U. after    1 cycles
 SCF Done:  E(UBHandHLYP) =  -3033.98962588     A.U. after   17 cycles
 SCF Done:  E(UBHandH) =  -3026.32721025     A.U. after   14 cycles
 SCF Done:  E(ULC-wPBE) =  -3033.47046327     A.U. after   19 cycles
 SCF Done:  E(UB-P86) =  -3034.64971390     A.U. after   16 cycles
 SCF Done:  E(UmPW1LYP) =  -3034.06701864     A.U. after   14 cycles
 SCF Done:  E(UmPW1PBE) =  -3033.90541834     A.U. after   14 cycles
 SCF Done:  E(UmPW3PBE) =  -3033.67849306     A.U. after   13 cycles
 SCF Done:  E(UM11) =  -3033.82784353     A.U. after   17 cycles
 SCF Done:  E(UN12SX) =  -3033.26963587     A.U. after   16 cycles
 SCF Done:  E(UMN12SX) =  -3033.67056884     A.U. after   16 cycles
 SCF Done:  E(UB1B95) =  -3034.40063973     A.U. after   14 cycles
 Normal termination of Gaussian 16 at Tue Feb 11 22:31:18 2020.
 SCF Done:  E(UB3PW91) =  -3033.99462199     A.U. after   13 cycles
 Normal termination of Gaussian 16 at Tue Feb 11 22:44:42 2020.
 SCF Done:  E(UM06L) =  -3034.21566997     A.U. after   18 cycles
 Normal termination of Gaussian 16 at Tue Feb 11 23:06:04 2020.
 Gaussian 16:  ES64L-G16RevA.03 25-Dec-2016

                         Standard orientation:
 ---------------------------------------------------------------------
 Center     Atomic      Atomic             Coordinates (Angstroms)
 Number     Number       Type             X           Y           Z
 ---------------------------------------------------------------------
      1          8           0        0.170596    0.371202   -0.857117
      2          6           0        1.016495    1.286289   -0.658084
      3          6           0        2.917701    0.272113    0.609540
      4          6           0        2.785449   -0.882273   -0.088121
      5          6           0        3.468550   -1.089935   -1.409729
      6         26           0       -1.505913   -0.176552   -0.016894
      7         17           0       -2.016083   -2.037580   -1.026747
      8          6           0        1.902225   -2.011106    0.350144
      9         17           0       -2.789613    1.543528   -0.440838
     10         17           0       -1.129985   -0.430933    2.132772
     11          1           0        3.611638    1.011484    0.210684
     12          1           0        2.448386   -2.962189    0.323084
     13          1           0        1.483224   -1.877120    1.347317
     14          1           0        1.065453   -2.115037   -0.356110
     15          1           0        4.127058   -1.966449   -1.351527
     16          1           0        2.738393   -1.307701   -2.201196
     17          1           0        4.076288   -0.231986   -1.708840
     18          6           0        2.548140    0.452176    2.062965
     19          1           0        3.286818   -0.057768    2.695208
     20          1           0        2.561255    1.506025    2.351500
     21          1           0        1.566168    0.045969    2.313996
     22          6           0        0.782455    2.289724    0.432671
     23          1           0        1.666455    2.891467    0.645481
     24          1           0       -0.008205    2.952637    0.050704
     25          1           0        0.401970    1.825275    1.342220
     26          6           0        1.848159    1.705449   -1.838145
     27          1           0        1.229263    2.420692   -2.399056
     28          1           0        2.768651    2.212949   -1.548070
     29          1           0        2.057696    0.862614   -2.494824
 ---------------------------------------------------------------------

 SCF Done:  E(UB97D3) =  -3034.63661222     A.U. after   15 cycles
 Normal termination of Gaussian 16 at Tue Feb 11 23:17:56 2020.
