 Gaussian 16, Revision A.03,

 --------------------------------
 #t pop=none jul-cc-pvdz upbe1pbe
 --------------------------------
 ------------------------
 theory_abbreviation pbe0
 ------------------------
 Symbolic Z-matrix:
 Charge =  0 Multiplicity = 6

 SCF Done:  E(UPBE1PBE) =  -3033.11210281     A.U. after   21 cycles
 Normal termination of Gaussian 16 at Tue Feb 11 13:59:53 2020.

 ---------------------------------------------------------------------
 #t pop=none jul-cc-pvdz guess=read upbe1pbe empiricaldispersion=gd3bj
 ---------------------------------------------------------------------
 -----------------------------
 theory_abbreviation pbe0_d3bj
 -----------------------------
 Symbolic Z-matrix:
 Charge =  0 Multiplicity = 6

 SCF Done:  E(UPBE1PBE) =  -3033.14979869     A.U. after    1 cycles
 Normal termination of Gaussian 16 at Tue Feb 11 14:01:04 2020.

 -----------------------------------------
 #t pop=none jul-cc-pvdz guess=read ub3lyp
 -----------------------------------------
 -------------------------
 theory_abbreviation b3lyp
 -------------------------
 Symbolic Z-matrix:
 Charge =  0 Multiplicity = 6

 SCF Done:  E(UB3LYP) =  -3034.32613559     A.U. after   13 cycles
 Normal termination of Gaussian 16 at Tue Feb 11 14:15:09 2020.

 -------------------------------------------------------------------
 #t pop=none jul-cc-pvdz guess=read ub3lyp empiricaldispersion=gd3bj
 -------------------------------------------------------------------
 ------------------------------
 theory_abbreviation b3lyp_d3bj
 ------------------------------
 Symbolic Z-matrix:
 Charge =  0 Multiplicity = 6

 SCF Done:  E(UB3LYP) =  -3034.39642605     A.U. after    1 cycles
 Normal termination of Gaussian 16 at Tue Feb 11 14:16:20 2020.

 ----------------------------------------
 #t pop=none jul-cc-pvdz guess=read ub97d
 ----------------------------------------
 ------------------------
 theory_abbreviation b97d
 ------------------------
 Symbolic Z-matrix:
 Charge =  0 Multiplicity = 6

 SCF Done:  E(UB97D) =  -3034.58004499     A.U. after   15 cycles

 ----------------------------------------------------------------
 #t pop=none jul-cc-pvdz guess=read ub97d empiricaldispersion=gd3
 ----------------------------------------------------------------
 -------------------------
 theory_abbreviation b97d3
 -------------------------
 Symbolic Z-matrix:
 Charge =  0 Multiplicity = 6

 SCF Done:  E(UB97D) =  -3034.58080826     A.U. after    1 cycles
 SCF Done:  E(UBHandHLYP) =  -3033.96759463     A.U. after   18 cycles
 SCF Done:  E(UBHandH) =  -3026.31377073     A.U. after   16 cycles
 SCF Done:  E(ULC-wPBE) =  -3033.45219777     A.U. after   19 cycles
 SCF Done:  E(UB-P86) =  -3034.63244949     A.U. after   17 cycles
 SCF Done:  E(UmPW1LYP) =  -3034.04428391     A.U. after   15 cycles
 SCF Done:  E(UmPW1PBE) =  -3033.88646700     A.U. after   15 cycles
 SCF Done:  E(UmPW3PBE) =  -3033.65907875     A.U. after   13 cycles
 SCF Done:  E(UM11) =  -3033.81036435     A.U. after   19 cycles
 SCF Done:  E(UN12SX) =  -3033.25168366     A.U. after   17 cycles
 SCF Done:  E(UMN12SX) =  -3033.65091226     A.U. after   16 cycles
 SCF Done:  E(UB1B95) =  -3034.38115670     A.U. after   16 cycles
 Normal termination of Gaussian 16 at Tue Feb 11 23:12:18 2020.
 SCF Done:  E(UB3PW91) =  -3033.97454385     A.U. after   16 cycles
 Normal termination of Gaussian 16 at Tue Feb 11 23:29:08 2020.
 SCF Done:  E(UM06L) =  -3034.19405743     A.U. after   17 cycles
 Normal termination of Gaussian 16 at Tue Feb 11 23:48:09 2020.
 Gaussian 16:  ES64L-G16RevA.03 25-Dec-2016

                         Standard orientation:
 ---------------------------------------------------------------------
 Center     Atomic      Atomic             Coordinates (Angstroms)
 Number     Number       Type             X           Y           Z
 ---------------------------------------------------------------------
      1          8           0       -0.317408   -0.162757   -0.731852
      2          6           0       -1.219245   -1.086006   -0.601159
      3          6           0       -2.866034   -0.219916    0.372486
      4          6           0       -2.449825    0.991747   -0.123599
      5          6           0       -2.834614    1.472074   -1.484154
      6         26           0        1.418422    0.108079    0.003387
      7         17           0        2.013602    2.072098   -0.768015
      8          6           0       -1.580755    1.926136    0.645181
      9         17           0        2.593400   -1.602386   -0.712838
     10         17           0        1.194390    0.087956    2.209670
     11          1           0       -3.631018   -0.738469   -0.202044
     12          1           0       -2.216413    2.743518    1.017883
     13          1           0       -1.087132    1.467847    1.500413
     14          1           0       -0.824218    2.379837   -0.003247
     15          1           0       -3.222844    2.495230   -1.405667
     16          1           0       -1.938497    1.530575   -2.115854
     17          1           0       -3.590144    0.848798   -1.965967
     18          6           0       -2.840220   -0.552493    1.848954
     19          1           0       -3.637453    0.001878    2.359810
     20          1           0       -3.025966   -1.615218    2.018752
     21          1           0       -1.895091   -0.292033    2.330411
     22          6           0       -0.939580   -2.206482    0.375285
     23          1           0       -1.793452   -2.874482    0.500990
     24          1           0       -0.114695   -2.777433   -0.073632
     25          1           0       -0.592156   -1.840961    1.340726
     26          6           0       -1.851487   -1.541224   -1.902008
     27          1           0       -1.083900   -2.144680   -2.403833
     28          1           0       -2.732285   -2.167582   -1.745888
     29          1           0       -2.087552   -0.708206   -2.561902
 ---------------------------------------------------------------------

 SCF Done:  E(UB97D3) =  -3034.61610742     A.U. after   15 cycles
 Normal termination of Gaussian 16 at Wed Feb 12 00:01:19 2020.
