 Gaussian 16, Revision A.03,

 --------------------------------
 #t pop=none jul-cc-pvdz upbe1pbe
 --------------------------------
 ------------------------
 theory_abbreviation pbe0
 ------------------------
 Symbolic Z-matrix:
 Charge =  0 Multiplicity = 6

 SCF Done:  E(UPBE1PBE) =  -3033.10668776     A.U. after   20 cycles
 Normal termination of Gaussian 16 at Tue Feb 11 13:57:49 2020.

 ---------------------------------------------------------------------
 #t pop=none jul-cc-pvdz guess=read upbe1pbe empiricaldispersion=gd3bj
 ---------------------------------------------------------------------
 -----------------------------
 theory_abbreviation pbe0_d3bj
 -----------------------------
 Symbolic Z-matrix:
 Charge =  0 Multiplicity = 6

 SCF Done:  E(UPBE1PBE) =  -3033.14367973     A.U. after    1 cycles
 Normal termination of Gaussian 16 at Tue Feb 11 13:59:06 2020.

 -----------------------------------------
 #t pop=none jul-cc-pvdz guess=read ub3lyp
 -----------------------------------------
 -------------------------
 theory_abbreviation b3lyp
 -------------------------
 Symbolic Z-matrix:
 Charge =  0 Multiplicity = 6

 SCF Done:  E(UB3LYP) =  -3034.31970892     A.U. after   13 cycles
 Normal termination of Gaussian 16 at Tue Feb 11 14:13:23 2020.

 -------------------------------------------------------------------
 #t pop=none jul-cc-pvdz guess=read ub3lyp empiricaldispersion=gd3bj
 -------------------------------------------------------------------
 ------------------------------
 theory_abbreviation b3lyp_d3bj
 ------------------------------
 Symbolic Z-matrix:
 Charge =  0 Multiplicity = 6

 SCF Done:  E(UB3LYP) =  -3034.38856138     A.U. after    1 cycles
 Normal termination of Gaussian 16 at Tue Feb 11 14:14:43 2020.

 ----------------------------------------
 #t pop=none jul-cc-pvdz guess=read ub97d
 ----------------------------------------
 ------------------------
 theory_abbreviation b97d
 ------------------------
 Symbolic Z-matrix:
 Charge =  0 Multiplicity = 6

 SCF Done:  E(UB97D) =  -3034.56961903     A.U. after   15 cycles

 ----------------------------------------------------------------
 #t pop=none jul-cc-pvdz guess=read ub97d empiricaldispersion=gd3
 ----------------------------------------------------------------
 -------------------------
 theory_abbreviation b97d3
 -------------------------
 Symbolic Z-matrix:
 Charge =  0 Multiplicity = 6

 SCF Done:  E(UB97D) =  -3034.57067703     A.U. after    1 cycles
 SCF Done:  E(UBHandHLYP) =  -3033.96406075     A.U. after   15 cycles
 SCF Done:  E(UBHandH) =  -3026.31027348     A.U. after   14 cycles
 SCF Done:  E(ULC-wPBE) =  -3033.45090765     A.U. after   17 cycles
 SCF Done:  E(UB-P86) =  -3034.62484809     A.U. after   16 cycles
 SCF Done:  E(UmPW1LYP) =  -3034.03831670     A.U. after   14 cycles
 SCF Done:  E(UmPW1PBE) =  -3033.88113166     A.U. after   14 cycles
 SCF Done:  E(UmPW3PBE) =  -3033.65319367     A.U. after   12 cycles
 SCF Done:  E(UM11) =  -3033.80294229     A.U. after   16 cycles
 SCF Done:  E(UN12SX) =  -3033.24683865     A.U. after   15 cycles
 SCF Done:  E(UMN12SX) =  -3033.64371897     A.U. after   16 cycles
 SCF Done:  E(UB1B95) =  -3034.37261134     A.U. after   14 cycles
 Normal termination of Gaussian 16 at Tue Feb 11 22:43:47 2020.
 SCF Done:  E(UB3PW91) =  -3033.96856653     A.U. after   13 cycles
 Normal termination of Gaussian 16 at Tue Feb 11 22:59:34 2020.
 SCF Done:  E(UM06L) =  -3034.18404186     A.U. after   18 cycles
 Normal termination of Gaussian 16 at Tue Feb 11 23:20:01 2020.
 Gaussian 16:  ES64L-G16RevA.03 25-Dec-2016

                         Standard orientation:
 ---------------------------------------------------------------------
 Center     Atomic      Atomic             Coordinates (Angstroms)
 Number     Number       Type             X           Y           Z
 ---------------------------------------------------------------------
      1          8           0       -0.334913   -0.275443   -0.612611
      2          6           0       -1.401605   -1.190021   -0.438451
      3          6           0       -2.773941   -0.149434   -0.128010
      4          6           0       -2.050784    1.133492   -0.247609
      5          6           0       -1.942461    1.815983   -1.551792
      6         26           0        1.374471    0.034865    0.025054
      7         17           0        1.737544    2.079869   -0.780953
      8          6           0       -1.570320    1.852770    0.946671
      9         17           0        2.690141   -1.570890   -0.686793
     10         17           0        1.240259    0.102047    2.250357
     11          1           0       -3.440614   -0.279846   -0.984075
     12          1           0       -2.451734    2.356646    1.379442
     13          1           0       -1.181247    1.177336    1.712473
     14          1           0       -0.817652    2.603385    0.699811
     15          1           0       -2.608382    2.694534   -1.511865
     16          1           0       -0.922336    2.193185   -1.688907
     17          1           0       -2.240729    1.185471   -2.389626
     18          6           0       -3.509764   -0.413838    1.179731
     19          1           0       -4.325908    0.304158    1.322349
     20          1           0       -3.952724   -1.413057    1.156799
     21          1           0       -2.853733   -0.360627    2.051116
     22          6           0       -1.154761   -2.135743    0.720882
     23          1           0       -1.987306   -2.830668    0.864908
     24          1           0       -0.257919   -2.720518    0.481992
     25          1           0       -0.954840   -1.601321    1.651040
     26          6           0       -1.651523   -1.924452   -1.744915
     27          1           0       -0.757278   -2.510091   -1.985939
     28          1           0       -2.509366   -2.601294   -1.668671
     29          1           0       -1.819268   -1.220206   -2.564802
 ---------------------------------------------------------------------

 SCF Done:  E(UB97D3) =  -3034.60564788     A.U. after   14 cycles
 Normal termination of Gaussian 16 at Tue Feb 11 23:31:50 2020.
