 Gaussian 16, Revision A.03,

 --------------------------------
 #t pop=none jul-cc-pvdz upbe1pbe
 --------------------------------
 ------------------------
 theory_abbreviation pbe0
 ------------------------
 Symbolic Z-matrix:
 Charge =  0 Multiplicity = 6

 SCF Done:  E(UPBE1PBE) =  -3033.10874447     A.U. after   20 cycles
 Normal termination of Gaussian 16 at Tue Feb 11 13:58:53 2020.

 ---------------------------------------------------------------------
 #t pop=none jul-cc-pvdz guess=read upbe1pbe empiricaldispersion=gd3bj
 ---------------------------------------------------------------------
 -----------------------------
 theory_abbreviation pbe0_d3bj
 -----------------------------
 Symbolic Z-matrix:
 Charge =  0 Multiplicity = 6

 SCF Done:  E(UPBE1PBE) =  -3033.14672759     A.U. after    1 cycles
 Normal termination of Gaussian 16 at Tue Feb 11 14:00:05 2020.

 -----------------------------------------
 #t pop=none jul-cc-pvdz guess=read ub3lyp
 -----------------------------------------
 -------------------------
 theory_abbreviation b3lyp
 -------------------------
 Symbolic Z-matrix:
 Charge =  0 Multiplicity = 6

 SCF Done:  E(UB3LYP) =  -3034.32328987     A.U. after   14 cycles
 Normal termination of Gaussian 16 at Tue Feb 11 14:15:03 2020.

 -------------------------------------------------------------------
 #t pop=none jul-cc-pvdz guess=read ub3lyp empiricaldispersion=gd3bj
 -------------------------------------------------------------------
 ------------------------------
 theory_abbreviation b3lyp_d3bj
 ------------------------------
 Symbolic Z-matrix:
 Charge =  0 Multiplicity = 6

 SCF Done:  E(UB3LYP) =  -3034.39406814     A.U. after    1 cycles
 Normal termination of Gaussian 16 at Tue Feb 11 14:16:14 2020.

 ----------------------------------------
 #t pop=none jul-cc-pvdz guess=read ub97d
 ----------------------------------------
 ------------------------
 theory_abbreviation b97d
 ------------------------
 Symbolic Z-matrix:
 Charge =  0 Multiplicity = 6

 SCF Done:  E(UB97D) =  -3034.57637363     A.U. after   15 cycles

 ----------------------------------------------------------------
 #t pop=none jul-cc-pvdz guess=read ub97d empiricaldispersion=gd3
 ----------------------------------------------------------------
 -------------------------
 theory_abbreviation b97d3
 -------------------------
 Symbolic Z-matrix:
 Charge =  0 Multiplicity = 6

 SCF Done:  E(UB97D) =  -3034.57830184     A.U. after    1 cycles
 SCF Done:  E(UBHandHLYP) =  -3033.96517185     A.U. after   17 cycles
 SCF Done:  E(UBHandH) =  -3026.31030333     A.U. after   15 cycles
 SCF Done:  E(ULC-wPBE) =  -3033.44952586     A.U. after   19 cycles
 SCF Done:  E(UB-P86) =  -3034.62959373     A.U. after   16 cycles
 SCF Done:  E(UmPW1LYP) =  -3034.04145100     A.U. after   14 cycles
 SCF Done:  E(UmPW1PBE) =  -3033.88322097     A.U. after   15 cycles
 SCF Done:  E(UmPW3PBE) =  -3033.65584812     A.U. after   13 cycles
 SCF Done:  E(UM11) =  -3033.80656173     A.U. after   17 cycles
 SCF Done:  E(UN12SX) =  -3033.24791091     A.U. after   17 cycles
 SCF Done:  E(UMN12SX) =  -3033.64862910     A.U. after   16 cycles
 SCF Done:  E(UB1B95) =  -3034.37906968     A.U. after   15 cycles
 Normal termination of Gaussian 16 at Tue Feb 11 22:42:08 2020.
 SCF Done:  E(UB3PW91) =  -3033.97141313     A.U. after   15 cycles
 Normal termination of Gaussian 16 at Tue Feb 11 22:59:34 2020.
 SCF Done:  E(UM06L) =  -3034.19221735     A.U. after   17 cycles
 Normal termination of Gaussian 16 at Tue Feb 11 23:18:40 2020.
 Gaussian 16:  ES64L-G16RevA.03 25-Dec-2016

                         Standard orientation:
 ---------------------------------------------------------------------
 Center     Atomic      Atomic             Coordinates (Angstroms)
 Number     Number       Type             X           Y           Z
 ---------------------------------------------------------------------
      1          8           0       -0.333349   -0.109160   -0.585701
      2          6           0       -1.200149   -1.051913   -0.525980
      3          6           0       -3.161903    0.026096    0.002610
      4          6           0       -2.285886    1.047530   -0.212009
      5          6           0       -2.156345    1.694078   -1.557106
      6         26           0        1.460970    0.066553    0.056815
      7         17           0        2.083452    1.989808   -0.782719
      8          6           0       -1.567321    1.746217    0.903112
      9         17           0        2.418500   -1.737217   -0.757199
     10         17           0        1.399992    0.039298    2.258189
     11          1           0       -3.740246   -0.315478   -0.853346
     12          1           0       -2.238398    2.518150    1.305980
     13          1           0       -1.292962    1.086944    1.727722
     14          1           0       -0.665993    2.248103    0.544320
     15          1           0       -2.534979    2.722019   -1.474670
     16          1           0       -1.107639    1.762701   -1.860431
     17          1           0       -2.738341    1.186782   -2.330431
     18          6           0       -3.672352   -0.429305    1.342933
     19          1           0       -4.597220    0.112421    1.583301
     20          1           0       -3.922516   -1.494865    1.343113
     21          1           0       -2.967473   -0.243104    2.156249
     22          6           0       -1.163268   -1.984075    0.649760
     23          1           0       -2.044995   -2.621892    0.712018
     24          1           0       -0.284974   -2.625539    0.481616
     25          1           0       -0.995484   -1.452785    1.586868
     26          6           0       -1.673017   -1.614055   -1.838791
     27          1           0       -0.846629   -2.246096   -2.195650
     28          1           0       -2.565601   -2.233524   -1.735348
     29          1           0       -1.826571   -0.830492   -2.580674
 ---------------------------------------------------------------------

 SCF Done:  E(UB97D3) =  -3034.61424788     A.U. after   17 cycles
 Normal termination of Gaussian 16 at Tue Feb 11 23:32:28 2020.
