 Gaussian 16, Revision A.03,

 --------------------------------
 #t pop=none jul-cc-pvdz upbe1pbe
 --------------------------------
 ------------------------
 theory_abbreviation pbe0
 ------------------------
 Symbolic Z-matrix:
 Charge =  0 Multiplicity = 6

 SCF Done:  E(UPBE1PBE) =  -3033.12200059     A.U. after   20 cycles
 Normal termination of Gaussian 16 at Tue Feb 11 14:44:18 2020.

 ---------------------------------------------------------------------
 #t pop=none jul-cc-pvdz guess=read upbe1pbe empiricaldispersion=gd3bj
 ---------------------------------------------------------------------
 -----------------------------
 theory_abbreviation pbe0_d3bj
 -----------------------------
 Symbolic Z-matrix:
 Charge =  0 Multiplicity = 6

 SCF Done:  E(UPBE1PBE) =  -3033.15898953     A.U. after    1 cycles
 Normal termination of Gaussian 16 at Tue Feb 11 14:45:29 2020.

 -----------------------------------------
 #t pop=none jul-cc-pvdz guess=read ub3lyp
 -----------------------------------------
 -------------------------
 theory_abbreviation b3lyp
 -------------------------
 Symbolic Z-matrix:
 Charge =  0 Multiplicity = 6

 SCF Done:  E(UB3LYP) =  -3034.33446537     A.U. after   13 cycles
 Normal termination of Gaussian 16 at Tue Feb 11 14:59:16 2020.

 -------------------------------------------------------------------
 #t pop=none jul-cc-pvdz guess=read ub3lyp empiricaldispersion=gd3bj
 -------------------------------------------------------------------
 ------------------------------
 theory_abbreviation b3lyp_d3bj
 ------------------------------
 Symbolic Z-matrix:
 Charge =  0 Multiplicity = 6

 SCF Done:  E(UB3LYP) =  -3034.40331695     A.U. after    1 cycles
 Normal termination of Gaussian 16 at Tue Feb 11 15:00:26 2020.

 ----------------------------------------
 #t pop=none jul-cc-pvdz guess=read ub97d
 ----------------------------------------
 ------------------------
 theory_abbreviation b97d
 ------------------------
 Symbolic Z-matrix:
 Charge =  0 Multiplicity = 6

 SCF Done:  E(UB97D) =  -3034.58424185     A.U. after   16 cycles

 ----------------------------------------------------------------
 #t pop=none jul-cc-pvdz guess=read ub97d empiricaldispersion=gd3
 ----------------------------------------------------------------
 -------------------------
 theory_abbreviation b97d3
 -------------------------
 Symbolic Z-matrix:
 Charge =  0 Multiplicity = 6

 SCF Done:  E(UB97D) =  -3034.58516205     A.U. after    2 cycles
 SCF Done:  E(UBHandHLYP) =  -3033.97767166     A.U. after   16 cycles
 SCF Done:  E(UBHandH) =  -3026.32384043     A.U. after   14 cycles
 SCF Done:  E(ULC-wPBE) =  -3033.46809714     A.U. after   17 cycles
 SCF Done:  E(UB-P86) =  -3034.64078515     A.U. after   17 cycles
 SCF Done:  E(UmPW1LYP) =  -3034.05278553     A.U. after   14 cycles
 SCF Done:  E(UmPW1PBE) =  -3033.89646121     A.U. after   14 cycles
 SCF Done:  E(UmPW3PBE) =  -3033.66855584     A.U. after   14 cycles
 SCF Done:  E(UM11) =  -3033.81680360     A.U. after   16 cycles
 SCF Done:  E(UN12SX) =  -3033.26224199     A.U. after   16 cycles
 SCF Done:  E(UMN12SX) =  -3033.65722899     A.U. after   16 cycles
 SCF Done:  E(UB1B95) =  -3034.38797218     A.U. after   15 cycles
 Normal termination of Gaussian 16 at Tue Feb 11 23:17:03 2020.
 SCF Done:  E(UB3PW91) =  -3033.98393146     A.U. after   14 cycles
 Normal termination of Gaussian 16 at Tue Feb 11 23:31:18 2020.
 SCF Done:  E(UM06L) =  -3034.19859964     A.U. after   17 cycles
 Normal termination of Gaussian 16 at Tue Feb 11 23:49:57 2020.
 Gaussian 16:  ES64L-G16RevA.03 25-Dec-2016

                         Standard orientation:
 ---------------------------------------------------------------------
 Center     Atomic      Atomic             Coordinates (Angstroms)
 Number     Number       Type             X           Y           Z
 ---------------------------------------------------------------------
      1          8           0       -0.406624   -0.191115   -0.540744
      2          6           0       -1.459735   -1.179116   -0.337771
      3          6           0       -2.738778   -0.139811   -0.257806
      4          6           0       -1.930725    1.150094   -0.256589
      5          6           0       -1.837375    1.948073   -1.503268
      6         26           0        1.377908    0.031030    0.025297
      7         17           0        1.848070    2.005961   -0.852925
      8          6           0       -1.575025    1.820078    1.018165
      9         17           0        2.469651   -1.709853   -0.735027
     10         17           0        1.374703    0.151687    2.234422
     11          1           0       -3.280749   -0.208409   -1.205857
     12          1           0       -2.449551    2.420366    1.317124
     13          1           0       -1.358394    1.117445    1.822740
     14          1           0       -0.727959    2.497135    0.886871
     15          1           0       -2.647905    2.694825   -1.474412
     16          1           0       -0.885094    2.483609   -1.551593
     17          1           0       -1.968479    1.332178   -2.394108
     18          6           0       -3.715643   -0.326014    0.898325
     19          1           0       -4.499702    0.439501    0.878014
     20          1           0       -4.206319   -1.300151    0.810793
     21          1           0       -3.225510   -0.285917    1.873792
     22          6           0       -1.223769   -1.974274    0.934355
     23          1           0       -2.042953   -2.678992    1.110060
     24          1           0       -0.298174   -2.550326    0.827205
     25          1           0       -1.110878   -1.331129    1.809169
     26          6           0       -1.525906   -2.071132   -1.564816
     27          1           0       -0.584586   -2.621808   -1.663916
     28          1           0       -2.347572   -2.791586   -1.480430
     29          1           0       -1.668271   -1.474499   -2.470772
 ---------------------------------------------------------------------

 SCF Done:  E(UB97D3) =  -3034.62064665     A.U. after   16 cycles
 Normal termination of Gaussian 16 at Wed Feb 12 00:03:31 2020.
