 Gaussian 16, Revision A.03,

 --------------------------------
 #t pop=none jul-cc-pvdz upbe1pbe
 --------------------------------
 ------------------------
 theory_abbreviation pbe0
 ------------------------
 Symbolic Z-matrix:
 Charge =  0 Multiplicity = 6

 SCF Done:  E(UPBE1PBE) =  -3033.13553188     A.U. after   20 cycles
 Normal termination of Gaussian 16 at Wed Feb 12 14:14:13 2020.

 ---------------------------------------------------------------------
 #t pop=none jul-cc-pvdz guess=read upbe1pbe empiricaldispersion=gd3bj
 ---------------------------------------------------------------------
 -----------------------------
 theory_abbreviation pbe0_d3bj
 -----------------------------
 Symbolic Z-matrix:
 Charge =  0 Multiplicity = 6

 SCF Done:  E(UPBE1PBE) =  -3033.17203400     A.U. after    1 cycles
 Normal termination of Gaussian 16 at Wed Feb 12 14:16:03 2020.

 -----------------------------------------
 #t pop=none jul-cc-pvdz guess=read ub3lyp
 -----------------------------------------
 -------------------------
 theory_abbreviation b3lyp
 -------------------------
 Symbolic Z-matrix:
 Charge =  0 Multiplicity = 6

 SCF Done:  E(UB3LYP) =  -3034.35369395     A.U. after   13 cycles
 Normal termination of Gaussian 16 at Wed Feb 12 14:29:59 2020.

 -------------------------------------------------------------------
 #t pop=none jul-cc-pvdz guess=read ub3lyp empiricaldispersion=gd3bj
 -------------------------------------------------------------------
 ------------------------------
 theory_abbreviation b3lyp_d3bj
 ------------------------------
 Symbolic Z-matrix:
 Charge =  0 Multiplicity = 6

 SCF Done:  E(UB3LYP) =  -3034.42129681     A.U. after    1 cycles
 Normal termination of Gaussian 16 at Wed Feb 12 14:31:06 2020.

 ----------------------------------------
 #t pop=none jul-cc-pvdz guess=read ub97d
 ----------------------------------------
 ------------------------
 theory_abbreviation b97d
 ------------------------
 Symbolic Z-matrix:
 Charge =  0 Multiplicity = 6

 SCF Done:  E(UB97D) =  -3034.60402704     A.U. after   16 cycles

 ----------------------------------------------------------------
 #t pop=none jul-cc-pvdz guess=read ub97d empiricaldispersion=gd3
 ----------------------------------------------------------------
 -------------------------
 theory_abbreviation b97d3
 -------------------------
 Symbolic Z-matrix:
 Charge =  0 Multiplicity = 6

 SCF Done:  E(UB97D) =  -3034.60596089     A.U. after    1 cycles
 SCF Done:  E(UBHandHLYP) =  -3033.99577500     A.U. after   18 cycles
 SCF Done:  E(UBHandH) =  -3026.33235129     A.U. after   14 cycles
 SCF Done:  E(ULC-wPBE) =  -3033.47725609     A.U. after   17 cycles
 SCF Done:  E(UB-P86) =  -3034.65343702     A.U. after   17 cycles
 SCF Done:  E(UmPW1LYP) =  -3034.07207514     A.U. after   13 cycles
 SCF Done:  E(UmPW1PBE) =  -3033.90998669     A.U. after   14 cycles
 SCF Done:  E(UmPW3PBE) =  -3033.68291467     A.U. after   13 cycles
 SCF Done:  E(UM11) =  -3033.83481393     A.U. after   17 cycles
 SCF Done:  E(UN12SX) =  -3033.27443914     A.U. after   17 cycles
 SCF Done:  E(UMN12SX) =  -3033.67710489     A.U. after   16 cycles
 SCF Done:  E(UB1B95) =  -3034.40646413     A.U. after   14 cycles
 Normal termination of Gaussian 16 at Wed Feb 12 22:30:01 2020.
 SCF Done:  E(UB3PW91) =  -3033.99911729     A.U. after   14 cycles
 Normal termination of Gaussian 16 at Wed Feb 12 22:43:39 2020.
 SCF Done:  E(UM06L) =  -3034.22166734     A.U. after   17 cycles
 Normal termination of Gaussian 16 at Wed Feb 12 23:01:32 2020.
 Gaussian 16:  ES64L-G16RevA.03 25-Dec-2016

                         Standard orientation:
 ---------------------------------------------------------------------
 Center     Atomic      Atomic             Coordinates (Angstroms)
 Number     Number       Type             X           Y           Z
 ---------------------------------------------------------------------
      1          8           0        0.235595    0.365683   -0.831420
      2          6           0        0.977507    1.355082   -0.640400
      3          6           0        3.175253    0.006730    0.451324
      4          6           0        2.566838   -0.971139   -0.247669
      5          6           0        2.879777   -1.208132   -1.700749
      6         26           0       -1.468673   -0.152983    0.034422
      7         17           0       -2.093277   -1.954156   -1.008725
      8          6           0        1.630168   -1.981245    0.349804
      9         17           0       -2.658707    1.638327   -0.378971
     10         17           0       -1.115362   -0.413060    2.182971
     11          1           0        3.901938    0.622957   -0.079699
     12          1           0        2.137148   -2.954049    0.412793
     13          1           0        1.279487   -1.722005    1.348475
     14          1           0        0.757832   -2.136033   -0.295323
     15          1           0        3.292818   -2.216397   -1.835554
     16          1           0        1.966142   -1.166000   -2.307678
     17          1           0        3.607201   -0.492513   -2.095272
     18          6           0        3.089801    0.248430    1.933444
     19          1           0        3.945165   -0.212901    2.446023
     20          1           0        3.127452    1.318048    2.168152
     21          1           0        2.180757   -0.162501    2.380178
     22          6           0        0.856882    2.189640    0.594230
     23          1           0        1.740985    2.807256    0.757343
     24          1           0       -0.008496    2.851255    0.438684
     25          1           0        0.643742    1.578124    1.471717
     26          6           0        1.768234    1.889714   -1.793301
     27          1           0        1.184126    2.726890   -2.203744
     28          1           0        2.734143    2.286053   -1.475656
     29          1           0        1.888416    1.140570   -2.573797
 ---------------------------------------------------------------------

 SCF Done:  E(UB97D3) =  -3034.64043244     A.U. after   16 cycles
 Normal termination of Gaussian 16 at Wed Feb 12 23:13:44 2020.
