 Gaussian 16, Revision A.03,

 --------------------------------
 #t pop=none jul-cc-pvdz upbe1pbe
 --------------------------------
 ------------------------
 theory_abbreviation pbe0
 ------------------------
 Symbolic Z-matrix:
 Charge =  0 Multiplicity = 6

 SCF Done:  E(UPBE1PBE) =  -3033.11788533     A.U. after   21 cycles
 Normal termination of Gaussian 16 at Tue Feb 11 23:38:34 2020.

 ---------------------------------------------------------------------
 #t pop=none jul-cc-pvdz guess=read upbe1pbe empiricaldispersion=gd3bj
 ---------------------------------------------------------------------
 -----------------------------
 theory_abbreviation pbe0_d3bj
 -----------------------------
 Symbolic Z-matrix:
 Charge =  0 Multiplicity = 6

 SCF Done:  E(UPBE1PBE) =  -3033.15531121     A.U. after    1 cycles
 Normal termination of Gaussian 16 at Tue Feb 11 23:39:40 2020.

 -----------------------------------------
 #t pop=none jul-cc-pvdz guess=read ub3lyp
 -----------------------------------------
 -------------------------
 theory_abbreviation b3lyp
 -------------------------
 Symbolic Z-matrix:
 Charge =  0 Multiplicity = 6

 SCF Done:  E(UB3LYP) =  -3034.33299868     A.U. after   13 cycles
 Normal termination of Gaussian 16 at Tue Feb 11 23:52:28 2020.

 -------------------------------------------------------------------
 #t pop=none jul-cc-pvdz guess=read ub3lyp empiricaldispersion=gd3bj
 -------------------------------------------------------------------
 ------------------------------
 theory_abbreviation b3lyp_d3bj
 ------------------------------
 Symbolic Z-matrix:
 Charge =  0 Multiplicity = 6

 SCF Done:  E(UB3LYP) =  -3034.40272917     A.U. after    1 cycles
 Normal termination of Gaussian 16 at Tue Feb 11 23:53:34 2020.

 ----------------------------------------
 #t pop=none jul-cc-pvdz guess=read ub97d
 ----------------------------------------
 ------------------------
 theory_abbreviation b97d
 ------------------------
 Symbolic Z-matrix:
 Charge =  0 Multiplicity = 6

 SCF Done:  E(UB97D) =  -3034.58695916     A.U. after   14 cycles

 ----------------------------------------------------------------
 #t pop=none jul-cc-pvdz guess=read ub97d empiricaldispersion=gd3
 ----------------------------------------------------------------
 -------------------------
 theory_abbreviation b97d3
 -------------------------
 Symbolic Z-matrix:
 Charge =  0 Multiplicity = 6

 SCF Done:  E(UB97D) =  -3034.58795901     A.U. after    1 cycles
 SCF Done:  E(UBHandHLYP) =  -3033.97335441     A.U. after   18 cycles
 SCF Done:  E(UBHandH) =  -3026.31762073     A.U. after   16 cycles
 SCF Done:  E(ULC-wPBE) =  -3033.45713257     A.U. after   19 cycles
 SCF Done:  E(UB-P86) =  -3034.63863865     A.U. after   17 cycles
 SCF Done:  E(UmPW1LYP) =  -3034.05099578     A.U. after   15 cycles
 SCF Done:  E(UmPW1PBE) =  -3033.89229150     A.U. after   16 cycles
 SCF Done:  E(UmPW3PBE) =  -3033.66515619     A.U. after   13 cycles
 SCF Done:  E(UM11) =  -3033.81537422     A.U. after   19 cycles
 SCF Done:  E(UN12SX) =  -3033.25722789     A.U. after   17 cycles
 SCF Done:  E(UMN12SX) =  -3033.65637515     A.U. after   17 cycles
 SCF Done:  E(UB1B95) =  -3034.38692846     A.U. after   16 cycles
 Normal termination of Gaussian 16 at Wed Feb 12 08:15:28 2020.
 SCF Done:  E(UB3PW91) =  -3033.98077624     A.U. after   15 cycles
 Normal termination of Gaussian 16 at Wed Feb 12 08:30:15 2020.
 SCF Done:  E(UM06L) =  -3034.20032917     A.U. after   18 cycles
 Normal termination of Gaussian 16 at Wed Feb 12 08:49:34 2020.
 Gaussian 16:  ES64L-G16RevA.03 25-Dec-2016

                         Standard orientation:
 ---------------------------------------------------------------------
 Center     Atomic      Atomic             Coordinates (Angstroms)
 Number     Number       Type             X           Y           Z
 ---------------------------------------------------------------------
      1          8           0       -0.282597   -0.227684   -0.758207
      2          6           0       -1.169623   -1.144912   -0.594986
      3          6           0       -2.783621   -0.303916    0.549671
      4          6           0       -2.628557    0.913095   -0.061755
      5          6           0       -3.306950    1.239718   -1.355525
      6         26           0        1.448129    0.143044   -0.024542
      7         17           0        1.988171    2.069457   -0.913246
      8          6           0       -1.724358    1.973483    0.463291
      9         17           0        2.666598   -1.572321   -0.639657
     10         17           0        1.211485    0.259719    2.169230
     11          1           0       -3.543762   -0.958963    0.126995
     12          1           0       -2.244541    2.938823    0.482989
     13          1           0       -1.319181    1.762723    1.451720
     14          1           0       -0.880842    2.092591   -0.232190
     15          1           0       -3.919411    2.140571   -1.220483
     16          1           0       -2.566155    1.484853   -2.128191
     17          1           0       -3.955429    0.437019   -1.711929
     18          6           0       -2.492090   -0.527916    2.019395
     19          1           0       -3.218925    0.031645    2.620990
     20          1           0       -2.597740   -1.581469    2.285671
     21          1           0       -1.493340   -0.201800    2.315684
     22          6           0       -0.849799   -2.275613    0.357621
     23          1           0       -1.708232   -2.923455    0.543753
     24          1           0       -0.071751   -2.863889   -0.148224
     25          1           0       -0.427821   -1.920063    1.296871
     26          6           0       -1.891002   -1.563888   -1.859707
     27          1           0       -1.189781   -2.215245   -2.397589
     28          1           0       -2.800731   -2.134501   -1.662695
     29          1           0       -2.103257   -0.713356   -2.505197
 ---------------------------------------------------------------------

 SCF Done:  E(UB97D3) =  -3034.62314362     A.U. after   15 cycles
 Normal termination of Gaussian 16 at Wed Feb 12 09:01:27 2020.
