 Gaussian 16, Revision A.03,

 --------------------------------
 #t pop=none jul-cc-pvdz upbe1pbe
 --------------------------------
 ------------------------
 theory_abbreviation pbe0
 ------------------------
 Symbolic Z-matrix:
 Charge =  0 Multiplicity = 6

 SCF Done:  E(UPBE1PBE) =  -3033.10966296     A.U. after   21 cycles
 Normal termination of Gaussian 16 at Tue Feb 11 14:00:02 2020.

 ---------------------------------------------------------------------
 #t pop=none jul-cc-pvdz guess=read upbe1pbe empiricaldispersion=gd3bj
 ---------------------------------------------------------------------
 -----------------------------
 theory_abbreviation pbe0_d3bj
 -----------------------------
 Symbolic Z-matrix:
 Charge =  0 Multiplicity = 6

 SCF Done:  E(UPBE1PBE) =  -3033.14761030     A.U. after    1 cycles
 Normal termination of Gaussian 16 at Tue Feb 11 14:01:13 2020.

 -----------------------------------------
 #t pop=none jul-cc-pvdz guess=read ub3lyp
 -----------------------------------------
 -------------------------
 theory_abbreviation b3lyp
 -------------------------
 Symbolic Z-matrix:
 Charge =  0 Multiplicity = 6

 SCF Done:  E(UB3LYP) =  -3034.32448878     A.U. after   14 cycles
 Normal termination of Gaussian 16 at Tue Feb 11 14:16:07 2020.

 -------------------------------------------------------------------
 #t pop=none jul-cc-pvdz guess=read ub3lyp empiricaldispersion=gd3bj
 -------------------------------------------------------------------
 ------------------------------
 theory_abbreviation b3lyp_d3bj
 ------------------------------
 Symbolic Z-matrix:
 Charge =  0 Multiplicity = 6

 SCF Done:  E(UB3LYP) =  -3034.39518131     A.U. after    1 cycles
 Normal termination of Gaussian 16 at Tue Feb 11 14:17:16 2020.

 ----------------------------------------
 #t pop=none jul-cc-pvdz guess=read ub97d
 ----------------------------------------
 ------------------------
 theory_abbreviation b97d
 ------------------------
 Symbolic Z-matrix:
 Charge =  0 Multiplicity = 6

 SCF Done:  E(UB97D) =  -3034.57746253     A.U. after   15 cycles

 ----------------------------------------------------------------
 #t pop=none jul-cc-pvdz guess=read ub97d empiricaldispersion=gd3
 ----------------------------------------------------------------
 -------------------------
 theory_abbreviation b97d3
 -------------------------
 Symbolic Z-matrix:
 Charge =  0 Multiplicity = 6

 SCF Done:  E(UB97D) =  -3034.57951149     A.U. after    1 cycles
 SCF Done:  E(UBHandHLYP) =  -3033.96633948     A.U. after   16 cycles
 SCF Done:  E(UBHandH) =  -3026.31097023     A.U. after   16 cycles
 SCF Done:  E(ULC-wPBE) =  -3033.45056548     A.U. after   19 cycles
 SCF Done:  E(UB-P86) =  -3034.63054836     A.U. after   16 cycles
 SCF Done:  E(UmPW1LYP) =  -3034.04265102     A.U. after   14 cycles
 SCF Done:  E(UmPW1PBE) =  -3033.88414393     A.U. after   15 cycles
 SCF Done:  E(UmPW3PBE) =  -3033.65681206     A.U. after   13 cycles
 SCF Done:  E(UM11) =  -3033.80750679     A.U. after   17 cycles
 SCF Done:  E(UN12SX) =  -3033.24871576     A.U. after   17 cycles
 SCF Done:  E(UMN12SX) =  -3033.64980341     A.U. after   16 cycles
 SCF Done:  E(UB1B95) =  -3034.38017140     A.U. after   15 cycles
 Normal termination of Gaussian 16 at Tue Feb 11 22:43:17 2020.
 SCF Done:  E(UB3PW91) =  -3033.97241839     A.U. after   15 cycles
 Normal termination of Gaussian 16 at Tue Feb 11 23:00:35 2020.
 SCF Done:  E(UM06L) =  -3034.19373545     A.U. after   17 cycles
 Normal termination of Gaussian 16 at Tue Feb 11 23:19:37 2020.
 Gaussian 16:  ES64L-G16RevA.03 25-Dec-2016

                         Standard orientation:
 ---------------------------------------------------------------------
 Center     Atomic      Atomic             Coordinates (Angstroms)
 Number     Number       Type             X           Y           Z
 ---------------------------------------------------------------------
      1          8           0       -0.335186   -0.113290   -0.586024
      2          6           0       -1.184329   -1.065792   -0.527574
      3          6           0       -3.185321    0.044269    0.007488
      4          6           0       -2.288983    1.042796   -0.217059
      5          6           0       -2.157797    1.681007   -1.567343
      6         26           0        1.463929    0.069717    0.059019
      7         17           0        2.089563    1.985459   -0.790242
      8          6           0       -1.562128    1.744626    0.892354
      9         17           0        2.412441   -1.739376   -0.752845
     10         17           0        1.406365    0.045449    2.258601
     11          1           0       -3.764587   -0.302252   -0.846199
     12          1           0       -2.223568    2.527394    1.289717
     13          1           0       -1.293111    1.090117    1.722631
     14          1           0       -0.656062    2.234605    0.528956
     15          1           0       -2.526332    2.713026   -1.491064
     16          1           0       -1.110468    1.737959   -1.877556
     17          1           0       -2.748431    1.174459   -2.334902
     18          6           0       -3.687591   -0.410259    1.350473
     19          1           0       -4.614932    0.125762    1.594572
     20          1           0       -3.931597   -1.477595    1.355309
     21          1           0       -2.980143   -0.217460    2.160181
     22          6           0       -1.161505   -1.984001    0.657572
     23          1           0       -2.048476   -2.614450    0.720104
     24          1           0       -0.286688   -2.634040    0.503858
     25          1           0       -0.997078   -1.442256    1.589284
     26          6           0       -1.671685   -1.624976   -1.834328
     27          1           0       -0.854859   -2.267875   -2.194636
     28          1           0       -2.569964   -2.234543   -1.723047
     29          1           0       -1.820612   -0.841235   -2.576765
 ---------------------------------------------------------------------

 SCF Done:  E(UB97D3) =  -3034.61541001     A.U. after   17 cycles
 Normal termination of Gaussian 16 at Tue Feb 11 23:33:20 2020.
