 Gaussian 16, Revision A.03,

 --------------------------------
 #t pop=none jul-cc-pvdz upbe1pbe
 --------------------------------
 ------------------------
 theory_abbreviation pbe0
 ------------------------
 Symbolic Z-matrix:
 Charge =  0 Multiplicity = 6

 SCF Done:  E(UPBE1PBE) =  -3033.10611983     A.U. after   21 cycles
 Normal termination of Gaussian 16 at Tue Feb 11 13:59:21 2020.

 ---------------------------------------------------------------------
 #t pop=none jul-cc-pvdz guess=read upbe1pbe empiricaldispersion=gd3bj
 ---------------------------------------------------------------------
 -----------------------------
 theory_abbreviation pbe0_d3bj
 -----------------------------
 Symbolic Z-matrix:
 Charge =  0 Multiplicity = 6

 SCF Done:  E(UPBE1PBE) =  -3033.14328744     A.U. after    1 cycles
 Normal termination of Gaussian 16 at Tue Feb 11 14:00:33 2020.

 -----------------------------------------
 #t pop=none jul-cc-pvdz guess=read ub3lyp
 -----------------------------------------
 -------------------------
 theory_abbreviation b3lyp
 -------------------------
 Symbolic Z-matrix:
 Charge =  0 Multiplicity = 6

 SCF Done:  E(UB3LYP) =  -3034.31862962     A.U. after   14 cycles
 Normal termination of Gaussian 16 at Tue Feb 11 14:15:37 2020.

 -------------------------------------------------------------------
 #t pop=none jul-cc-pvdz guess=read ub3lyp empiricaldispersion=gd3bj
 -------------------------------------------------------------------
 ------------------------------
 theory_abbreviation b3lyp_d3bj
 ------------------------------
 Symbolic Z-matrix:
 Charge =  0 Multiplicity = 6

 SCF Done:  E(UB3LYP) =  -3034.38793021     A.U. after    1 cycles
 Normal termination of Gaussian 16 at Tue Feb 11 14:16:47 2020.

 ----------------------------------------
 #t pop=none jul-cc-pvdz guess=read ub97d
 ----------------------------------------
 ------------------------
 theory_abbreviation b97d
 ------------------------
 Symbolic Z-matrix:
 Charge =  0 Multiplicity = 6

 SCF Done:  E(UB97D) =  -3034.57131840     A.U. after   17 cycles

 ----------------------------------------------------------------
 #t pop=none jul-cc-pvdz guess=read ub97d empiricaldispersion=gd3
 ----------------------------------------------------------------
 -------------------------
 theory_abbreviation b97d3
 -------------------------
 Symbolic Z-matrix:
 Charge =  0 Multiplicity = 6

 SCF Done:  E(UB97D) =  -3034.57132679     A.U. after    1 cycles
 SCF Done:  E(UBHandHLYP) =  -3033.96178247     A.U. after   17 cycles
 SCF Done:  E(UBHandH) =  -3026.30996441     A.U. after   16 cycles
 SCF Done:  E(ULC-wPBE) =  -3033.44717437     A.U. after   18 cycles
 SCF Done:  E(UB-P86) =  -3034.62413157     A.U. after   16 cycles
 SCF Done:  E(UmPW1LYP) =  -3034.03700795     A.U. after   15 cycles
 SCF Done:  E(UmPW1PBE) =  -3033.88043877     A.U. after   15 cycles
 SCF Done:  E(UmPW3PBE) =  -3033.65264767     A.U. after   15 cycles
 SCF Done:  E(UM11) =  -3033.80454033     A.U. after   19 cycles
 SCF Done:  E(UN12SX) =  -3033.24621484     A.U. after   17 cycles
 SCF Done:  E(UMN12SX) =  -3033.64445020     A.U. after   16 cycles
 SCF Done:  E(UB1B95) =  -3034.37416416     A.U. after   16 cycles
 Normal termination of Gaussian 16 at Tue Feb 11 23:09:06 2020.
 SCF Done:  E(UB3PW91) =  -3033.96793777     A.U. after   16 cycles
 Normal termination of Gaussian 16 at Tue Feb 11 23:25:32 2020.
 SCF Done:  E(UM06L) =  -3034.18647050     A.U. after   18 cycles
 Normal termination of Gaussian 16 at Tue Feb 11 23:45:21 2020.
 Gaussian 16:  ES64L-G16RevA.03 25-Dec-2016

                         Standard orientation:
 ---------------------------------------------------------------------
 Center     Atomic      Atomic             Coordinates (Angstroms)
 Number     Number       Type             X           Y           Z
 ---------------------------------------------------------------------
      1          8           0       -0.329347   -0.164868   -0.698345
      2          6           0       -1.275855   -1.090351   -0.553498
      3          6           0       -2.752426   -0.287636    0.332725
      4          6           0       -2.409833    0.992278   -0.119445
      5          6           0       -2.814568    1.494411   -1.457576
      6         26           0        1.392169    0.105016   -0.013392
      7         17           0        1.913738    2.117085   -0.746496
      8          6           0       -1.586841    1.921110    0.688673
      9         17           0        2.642035   -1.548996   -0.743630
     10         17           0        1.182184    0.067074    2.208770
     11          1           0       -3.571483   -0.753720   -0.213261
     12          1           0       -2.289528    2.613343    1.182284
     13          1           0       -1.006375    1.428672    1.467420
     14          1           0       -0.923030    2.520549    0.058816
     15          1           0       -3.174473    2.526363   -1.363974
     16          1           0       -1.913789    1.542229   -2.085706
     17          1           0       -3.577569    0.885495   -1.943698
     18          6           0       -2.753875   -0.590296    1.823102
     19          1           0       -3.537125   -0.003845    2.317578
     20          1           0       -2.972867   -1.645023    2.000151
     21          1           0       -1.801893   -0.357278    2.304424
     22          6           0       -0.915926   -2.258520    0.350791
     23          1           0       -1.745073   -2.959020    0.475865
     24          1           0       -0.092841   -2.779119   -0.155608
     25          1           0       -0.546289   -1.932328    1.322353
     26          6           0       -1.842424   -1.554889   -1.890072
     27          1           0       -1.033106   -2.098618   -2.390946
     28          1           0       -2.693074   -2.230853   -1.768356
     29          1           0       -2.117876   -0.722737   -2.537542
 ---------------------------------------------------------------------

 SCF Done:  E(UB97D3) =  -3034.60580922     A.U. after   16 cycles
 Normal termination of Gaussian 16 at Tue Feb 11 23:57:57 2020.
