 Gaussian 16, Revision A.03,

 --------------------------------
 #t pop=none jul-cc-pvdz upbe1pbe
 --------------------------------
 ------------------------
 theory_abbreviation pbe0
 ------------------------
 Symbolic Z-matrix:
 Charge =  0 Multiplicity = 6

 SCF Done:  E(UPBE1PBE) =  -3033.12040704     A.U. after   20 cycles
 Normal termination of Gaussian 16 at Tue Feb 11 13:58:52 2020.

 ---------------------------------------------------------------------
 #t pop=none jul-cc-pvdz guess=read upbe1pbe empiricaldispersion=gd3bj
 ---------------------------------------------------------------------
 -----------------------------
 theory_abbreviation pbe0_d3bj
 -----------------------------
 Symbolic Z-matrix:
 Charge =  0 Multiplicity = 6

 SCF Done:  E(UPBE1PBE) =  -3033.15804376     A.U. after    1 cycles
 Normal termination of Gaussian 16 at Tue Feb 11 14:00:04 2020.

 -----------------------------------------
 #t pop=none jul-cc-pvdz guess=read ub3lyp
 -----------------------------------------
 -------------------------
 theory_abbreviation b3lyp
 -------------------------
 Symbolic Z-matrix:
 Charge =  0 Multiplicity = 6

 SCF Done:  E(UB3LYP) =  -3034.33590207     A.U. after   13 cycles
 Normal termination of Gaussian 16 at Tue Feb 11 14:14:06 2020.

 -------------------------------------------------------------------
 #t pop=none jul-cc-pvdz guess=read ub3lyp empiricaldispersion=gd3bj
 -------------------------------------------------------------------
 ------------------------------
 theory_abbreviation b3lyp_d3bj
 ------------------------------
 Symbolic Z-matrix:
 Charge =  0 Multiplicity = 6

 SCF Done:  E(UB3LYP) =  -3034.40600996     A.U. after    1 cycles
 Normal termination of Gaussian 16 at Tue Feb 11 14:15:18 2020.

 ----------------------------------------
 #t pop=none jul-cc-pvdz guess=read ub97d
 ----------------------------------------
 ------------------------
 theory_abbreviation b97d
 ------------------------
 Symbolic Z-matrix:
 Charge =  0 Multiplicity = 6

 SCF Done:  E(UB97D) =  -3034.58987877     A.U. after   15 cycles

 ----------------------------------------------------------------
 #t pop=none jul-cc-pvdz guess=read ub97d empiricaldispersion=gd3
 ----------------------------------------------------------------
 -------------------------
 theory_abbreviation b97d3
 -------------------------
 Symbolic Z-matrix:
 Charge =  0 Multiplicity = 6

 SCF Done:  E(UB97D) =  -3034.59097927     A.U. after    1 cycles
 SCF Done:  E(UBHandHLYP) =  -3033.97675466     A.U. after   18 cycles
 SCF Done:  E(UBHandH) =  -3026.32028410     A.U. after   16 cycles
 SCF Done:  E(ULC-wPBE) =  -3033.46042792     A.U. after   19 cycles
 SCF Done:  E(UB-P86) =  -3034.64124078     A.U. after   16 cycles
 SCF Done:  E(UmPW1LYP) =  -3034.05401738     A.U. after   14 cycles
 SCF Done:  E(UmPW1PBE) =  -3033.89478824     A.U. after   14 cycles
 SCF Done:  E(UmPW3PBE) =  -3033.66764280     A.U. after   13 cycles
 SCF Done:  E(UM11) =  -3033.81830786     A.U. after   19 cycles
 SCF Done:  E(UN12SX) =  -3033.25955948     A.U. after   17 cycles
 SCF Done:  E(UMN12SX) =  -3033.65980995     A.U. after   16 cycles
 SCF Done:  E(UB1B95) =  -3034.39002426     A.U. after   15 cycles
 Normal termination of Gaussian 16 at Tue Feb 11 23:05:23 2020.
 SCF Done:  E(UB3PW91) =  -3033.98331209     A.U. after   15 cycles
 Normal termination of Gaussian 16 at Tue Feb 11 23:21:14 2020.
 SCF Done:  E(UM06L) =  -3034.20424271     A.U. after   18 cycles
 Normal termination of Gaussian 16 at Tue Feb 11 23:41:13 2020.
 Gaussian 16:  ES64L-G16RevA.03 25-Dec-2016

                         Standard orientation:
 ---------------------------------------------------------------------
 Center     Atomic      Atomic             Coordinates (Angstroms)
 Number     Number       Type             X           Y           Z
 ---------------------------------------------------------------------
      1          8           0       -0.282464   -0.226800   -0.790227
      2          6           0       -1.152285   -1.149991   -0.629304
      3          6           0       -2.873049   -0.227628    0.489051
      4          6           0       -2.552686    0.956413   -0.105728
      5          6           0       -3.074024    1.332703   -1.458784
      6         26           0        1.441417    0.131075   -0.004839
      7         17           0        2.034345    2.049095   -0.868318
      8          6           0       -1.648864    1.969304    0.515595
      9         17           0        2.636227   -1.602521   -0.614507
     10         17           0        1.164622    0.216339    2.184360
     11          1           0       -3.623597   -0.838139   -0.009833
     12          1           0       -2.211390    2.897241    0.686440
     13          1           0       -1.210717    1.651976    1.460290
     14          1           0       -0.837119    2.223757   -0.177408
     15          1           0       -3.574108    2.307463   -1.395719
     16          1           0       -2.242708    1.458606   -2.165088
     17          1           0       -3.787669    0.608844   -1.858212
     18          6           0       -2.691275   -0.508089    1.963154
     19          1           0       -3.457741    0.032786    2.532855
     20          1           0       -2.818386   -1.570015    2.185455
     21          1           0       -1.716280   -0.196271    2.343936
     22          6           0       -0.885707   -2.231369    0.386325
     23          1           0       -1.753553   -2.871050    0.553043
     24          1           0       -0.082456   -2.841743   -0.050971
     25          1           0       -0.512731   -1.834253    1.329513
     26          6           0       -1.877763   -1.593517   -1.877971
     27          1           0       -1.178045   -2.261809   -2.398344
     28          1           0       -2.787131   -2.157253   -1.663062
     29          1           0       -2.087866   -0.760154   -2.545402
 ---------------------------------------------------------------------

 SCF Done:  E(UB97D3) =  -3034.62632131     A.U. after   15 cycles
 Normal termination of Gaussian 16 at Tue Feb 11 23:53:41 2020.
