 Gaussian 16, Revision A.03,

 --------------------------------
 #t pop=none jul-cc-pvdz upbe1pbe
 --------------------------------
 ------------------------
 theory_abbreviation pbe0
 ------------------------
 Symbolic Z-matrix:
 Charge =  0 Multiplicity = 6

 SCF Done:  E(UPBE1PBE) =  -3033.13519807     A.U. after   19 cycles
 Normal termination of Gaussian 16 at Tue Feb 11 13:57:54 2020.

 ---------------------------------------------------------------------
 #t pop=none jul-cc-pvdz guess=read upbe1pbe empiricaldispersion=gd3bj
 ---------------------------------------------------------------------
 -----------------------------
 theory_abbreviation pbe0_d3bj
 -----------------------------
 Symbolic Z-matrix:
 Charge =  0 Multiplicity = 6

 SCF Done:  E(UPBE1PBE) =  -3033.17159737     A.U. after    1 cycles
 Normal termination of Gaussian 16 at Tue Feb 11 13:59:04 2020.

 -----------------------------------------
 #t pop=none jul-cc-pvdz guess=read ub3lyp
 -----------------------------------------
 -------------------------
 theory_abbreviation b3lyp
 -------------------------
 Symbolic Z-matrix:
 Charge =  0 Multiplicity = 6

 SCF Done:  E(UB3LYP) =  -3034.35346513     A.U. after   13 cycles
 Normal termination of Gaussian 16 at Tue Feb 11 14:12:37 2020.

 -------------------------------------------------------------------
 #t pop=none jul-cc-pvdz guess=read ub3lyp empiricaldispersion=gd3bj
 -------------------------------------------------------------------
 ------------------------------
 theory_abbreviation b3lyp_d3bj
 ------------------------------
 Symbolic Z-matrix:
 Charge =  0 Multiplicity = 6

 SCF Done:  E(UB3LYP) =  -3034.42088701     A.U. after    1 cycles
 Normal termination of Gaussian 16 at Tue Feb 11 14:13:47 2020.

 ----------------------------------------
 #t pop=none jul-cc-pvdz guess=read ub97d
 ----------------------------------------
 ------------------------
 theory_abbreviation b97d
 ------------------------
 Symbolic Z-matrix:
 Charge =  0 Multiplicity = 6

 SCF Done:  E(UB97D) =  -3034.60435636     A.U. after   15 cycles

 ----------------------------------------------------------------
 #t pop=none jul-cc-pvdz guess=read ub97d empiricaldispersion=gd3
 ----------------------------------------------------------------
 -------------------------
 theory_abbreviation b97d3
 -------------------------
 Symbolic Z-matrix:
 Charge =  0 Multiplicity = 6

 SCF Done:  E(UB97D) =  -3034.60560430     A.U. after    1 cycles
 SCF Done:  E(UBHandHLYP) =  -3033.99494621     A.U. after   15 cycles
 SCF Done:  E(UBHandH) =  -3026.33159312     A.U. after   14 cycles
 SCF Done:  E(ULC-wPBE) =  -3033.47582009     A.U. after   19 cycles
 SCF Done:  E(UB-P86) =  -3034.65338655     A.U. after   16 cycles
 SCF Done:  E(UmPW1LYP) =  -3034.07175913     A.U. after   13 cycles
 SCF Done:  E(UmPW1PBE) =  -3033.90967540     A.U. after   14 cycles
 SCF Done:  E(UmPW3PBE) =  -3033.68269076     A.U. after   13 cycles
 SCF Done:  E(UM11) =  -3033.83331341     A.U. after   17 cycles
 SCF Done:  E(UN12SX) =  -3033.27406543     A.U. after   16 cycles
 SCF Done:  E(UMN12SX) =  -3033.67597020     A.U. after   16 cycles
 SCF Done:  E(UB1B95) =  -3034.40549312     A.U. after   14 cycles
 Normal termination of Gaussian 16 at Tue Feb 11 22:28:23 2020.
 SCF Done:  E(UB3PW91) =  -3033.99887941     A.U. after   13 cycles
 Normal termination of Gaussian 16 at Tue Feb 11 22:41:49 2020.
 SCF Done:  E(UM06L) =  -3034.22077374     A.U. after   18 cycles
 Normal termination of Gaussian 16 at Tue Feb 11 23:02:52 2020.
 Gaussian 16:  ES64L-G16RevA.03 25-Dec-2016

                         Standard orientation:
 ---------------------------------------------------------------------
 Center     Atomic      Atomic             Coordinates (Angstroms)
 Number     Number       Type             X           Y           Z
 ---------------------------------------------------------------------
      1          8           0        0.173157    0.386815   -0.882849
      2          6           0        0.982980    1.325820   -0.682747
      3          6           0        3.017056    0.183354    0.574160
      4          6           0        2.711095   -0.920903   -0.140387
      5          6           0        3.266328   -1.145041   -1.519981
      6         26           0       -1.493472   -0.170255    0.002004
      7         17           0       -2.042761   -2.016931   -1.007428
      8          6           0        1.800165   -2.008802    0.346812
      9         17           0       -2.766866    1.563964   -0.393341
     10         17           0       -1.076482   -0.420820    2.143014
     11          1           0        3.726813    0.881249    0.129476
     12          1           0        2.332962   -2.968683    0.361835
     13          1           0        1.392779   -1.827217    1.341004
     14          1           0        0.959560   -2.136364   -0.348729
     15          1           0        3.840686   -2.080299   -1.544420
     16          1           0        2.457256   -1.263022   -2.253605
     17          1           0        3.927629   -0.336312   -1.843239
     18          6           0        2.729424    0.401760    2.037598
     19          1           0        3.509640   -0.075416    2.645975
     20          1           0        2.740104    1.464877    2.294569
     21          1           0        1.768909   -0.011876    2.353543
     22          6           0        0.793745    2.262018    0.470285
     23          1           0        1.680963    2.865640    0.663459
     24          1           0       -0.028921    2.931774    0.177677
     25          1           0        0.477700    1.738223    1.372525
     26          6           0        1.821554    1.777845   -1.841185
     27          1           0        1.229014    2.546474   -2.359144
     28          1           0        2.758475    2.236930   -1.523909
     29          1           0        2.001203    0.964204   -2.541832
 ---------------------------------------------------------------------

 SCF Done:  E(UB97D3) =  -3034.64051881     A.U. after   15 cycles
 Normal termination of Gaussian 16 at Tue Feb 11 23:14:50 2020.
