 Gaussian 16, Revision A.03,

 --------------------------------
 #t pop=none jul-cc-pvdz upbe1pbe
 --------------------------------
 ------------------------
 theory_abbreviation pbe0
 ------------------------
 Symbolic Z-matrix:
 Charge =  0 Multiplicity = 6

 SCF Done:  E(UPBE1PBE) =  -3033.11813287     A.U. after   20 cycles
 Normal termination of Gaussian 16 at Tue Feb 11 20:04:32 2020.

 ---------------------------------------------------------------------
 #t pop=none jul-cc-pvdz guess=read upbe1pbe empiricaldispersion=gd3bj
 ---------------------------------------------------------------------
 -----------------------------
 theory_abbreviation pbe0_d3bj
 -----------------------------
 Symbolic Z-matrix:
 Charge =  0 Multiplicity = 6

 SCF Done:  E(UPBE1PBE) =  -3033.15591702     A.U. after    1 cycles
 Normal termination of Gaussian 16 at Tue Feb 11 20:05:40 2020.

 -----------------------------------------
 #t pop=none jul-cc-pvdz guess=read ub3lyp
 -----------------------------------------
 -------------------------
 theory_abbreviation b3lyp
 -------------------------
 Symbolic Z-matrix:
 Charge =  0 Multiplicity = 6

 SCF Done:  E(UB3LYP) =  -3034.33328797     A.U. after   13 cycles
 Normal termination of Gaussian 16 at Tue Feb 11 20:18:54 2020.

 -------------------------------------------------------------------
 #t pop=none jul-cc-pvdz guess=read ub3lyp empiricaldispersion=gd3bj
 -------------------------------------------------------------------
 ------------------------------
 theory_abbreviation b3lyp_d3bj
 ------------------------------
 Symbolic Z-matrix:
 Charge =  0 Multiplicity = 6

 SCF Done:  E(UB3LYP) =  -3034.40369179     A.U. after    1 cycles
 Normal termination of Gaussian 16 at Tue Feb 11 20:20:02 2020.

 ----------------------------------------
 #t pop=none jul-cc-pvdz guess=read ub97d
 ----------------------------------------
 ------------------------
 theory_abbreviation b97d
 ------------------------
 Symbolic Z-matrix:
 Charge =  0 Multiplicity = 6

 SCF Done:  E(UB97D) =  -3034.58718289     A.U. after   15 cycles

 ----------------------------------------------------------------
 #t pop=none jul-cc-pvdz guess=read ub97d empiricaldispersion=gd3
 ----------------------------------------------------------------
 -------------------------
 theory_abbreviation b97d3
 -------------------------
 Symbolic Z-matrix:
 Charge =  0 Multiplicity = 6

 SCF Done:  E(UB97D) =  -3034.58836055     A.U. after    1 cycles
 SCF Done:  E(UBHandHLYP) =  -3033.97449833     A.U. after   18 cycles
 SCF Done:  E(UBHandH) =  -3026.31868622     A.U. after   16 cycles
 SCF Done:  E(ULC-wPBE) =  -3033.45847507     A.U. after   19 cycles
 SCF Done:  E(UB-P86) =  -3034.63896161     A.U. after   16 cycles
 SCF Done:  E(UmPW1LYP) =  -3034.05143769     A.U. after   13 cycles
 SCF Done:  E(UmPW1PBE) =  -3033.89251866     A.U. after   14 cycles
 SCF Done:  E(UmPW3PBE) =  -3033.66529331     A.U. after   13 cycles
 SCF Done:  E(UM11) =  -3033.81614854     A.U. after   19 cycles
 SCF Done:  E(UN12SX) =  -3033.25730336     A.U. after   17 cycles
 SCF Done:  E(UMN12SX) =  -3033.65757798     A.U. after   16 cycles
 SCF Done:  E(UB1B95) =  -3034.38779954     A.U. after   15 cycles
 Normal termination of Gaussian 16 at Wed Feb 12 04:45:10 2020.
 SCF Done:  E(UB3PW91) =  -3033.98091831     A.U. after   15 cycles
 Normal termination of Gaussian 16 at Wed Feb 12 05:00:04 2020.
 SCF Done:  E(UM06L) =  -3034.20187466     A.U. after   17 cycles
 Normal termination of Gaussian 16 at Wed Feb 12 05:20:32 2020.
 Gaussian 16:  ES64L-G16RevA.03 25-Dec-2016

                         Standard orientation:
 ---------------------------------------------------------------------
 Center     Atomic      Atomic             Coordinates (Angstroms)
 Number     Number       Type             X           Y           Z
 ---------------------------------------------------------------------
      1          8           0       -0.300811   -0.189311   -0.764783
      2          6           0       -1.172249   -1.117180   -0.627641
      3          6           0       -2.941481   -0.170365    0.390132
      4          6           0       -2.471721    0.993669   -0.140123
      5          6           0       -2.832498    1.443621   -1.521655
      6         26           0        1.434536    0.112348    0.013440
      7         17           0        2.058512    2.040492   -0.806151
      8          6           0       -1.584852    1.936374    0.605513
      9         17           0        2.585828   -1.630373   -0.656184
     10         17           0        1.186410    0.137289    2.208850
     11          1           0       -3.681394   -0.713833   -0.194217
     12          1           0       -2.180747    2.812462    0.899320
     13          1           0       -1.144333    1.511032    1.505834
     14          1           0       -0.780953    2.305781   -0.040317
     15          1           0       -3.228499    2.465862   -1.475424
     16          1           0       -1.931642    1.489462   -2.147260
     17          1           0       -3.581775    0.807774   -1.998300
     18          6           0       -2.909725   -0.505901    1.862081
     19          1           0       -3.718663    0.030220    2.375187
     20          1           0       -3.074408   -1.572389    2.033817
     21          1           0       -1.971735   -0.224776    2.346461
     22          6           0       -0.943924   -2.182497    0.412193
     23          1           0       -1.812625   -2.828544    0.545391
     24          1           0       -0.115394   -2.790859    0.021028
     25          1           0       -0.618704   -1.769923    1.366396
     26          6           0       -1.850452   -1.578865   -1.895534
     27          1           0       -1.117812   -2.228601   -2.394028
     28          1           0       -2.750178   -2.165953   -1.703873
     29          1           0       -2.063905   -0.753343   -2.571744
 ---------------------------------------------------------------------

 SCF Done:  E(UB97D3) =  -3034.62384834     A.U. after   16 cycles
 Normal termination of Gaussian 16 at Wed Feb 12 05:33:12 2020.
