 Gaussian 16, Revision A.03,

 --------------------------------
 #t pop=none jul-cc-pvdz upbe1pbe
 --------------------------------
 ------------------------
 theory_abbreviation pbe0
 ------------------------
 Symbolic Z-matrix:
 Charge =  0 Multiplicity = 6

 SCF Done:  E(UPBE1PBE) =  -3033.10994180     A.U. after   20 cycles
 Normal termination of Gaussian 16 at Tue Feb 11 13:57:02 2020.

 ---------------------------------------------------------------------
 #t pop=none jul-cc-pvdz guess=read upbe1pbe empiricaldispersion=gd3bj
 ---------------------------------------------------------------------
 -----------------------------
 theory_abbreviation pbe0_d3bj
 -----------------------------
 Symbolic Z-matrix:
 Charge =  0 Multiplicity = 6

 SCF Done:  E(UPBE1PBE) =  -3033.14683127     A.U. after    1 cycles
 Normal termination of Gaussian 16 at Tue Feb 11 13:58:13 2020.

 -----------------------------------------
 #t pop=none jul-cc-pvdz guess=read ub3lyp
 -----------------------------------------
 -------------------------
 theory_abbreviation b3lyp
 -------------------------
 Symbolic Z-matrix:
 Charge =  0 Multiplicity = 6

 SCF Done:  E(UB3LYP) =  -3034.32337151     A.U. after   13 cycles
 Normal termination of Gaussian 16 at Tue Feb 11 14:11:53 2020.

 -------------------------------------------------------------------
 #t pop=none jul-cc-pvdz guess=read ub3lyp empiricaldispersion=gd3bj
 -------------------------------------------------------------------
 ------------------------------
 theory_abbreviation b3lyp_d3bj
 ------------------------------
 Symbolic Z-matrix:
 Charge =  0 Multiplicity = 6

 SCF Done:  E(UB3LYP) =  -3034.39198265     A.U. after    1 cycles
 Normal termination of Gaussian 16 at Tue Feb 11 14:13:14 2020.

 ----------------------------------------
 #t pop=none jul-cc-pvdz guess=read ub97d
 ----------------------------------------
 ------------------------
 theory_abbreviation b97d
 ------------------------
 Symbolic Z-matrix:
 Charge =  0 Multiplicity = 6

 SCF Done:  E(UB97D) =  -3034.57402268     A.U. after   15 cycles

 ----------------------------------------------------------------
 #t pop=none jul-cc-pvdz guess=read ub97d empiricaldispersion=gd3
 ----------------------------------------------------------------
 -------------------------
 theory_abbreviation b97d3
 -------------------------
 Symbolic Z-matrix:
 Charge =  0 Multiplicity = 6

 SCF Done:  E(UB97D) =  -3034.57498974     A.U. after    3 cycles
 SCF Done:  E(UBHandHLYP) =  -3033.96519108     A.U. after   16 cycles
 SCF Done:  E(UBHandH) =  -3026.31034836     A.U. after   14 cycles
 SCF Done:  E(ULC-wPBE) =  -3033.45405663     A.U. after   17 cycles
 SCF Done:  E(UB-P86) =  -3034.63005309     A.U. after   16 cycles
 SCF Done:  E(UmPW1LYP) =  -3034.04154524     A.U. after   14 cycles
 SCF Done:  E(UmPW1PBE) =  -3033.88445762     A.U. after   14 cycles
 SCF Done:  E(UmPW3PBE) =  -3033.65684496     A.U. after   14 cycles
 SCF Done:  E(UM11) =  -3033.80460353     A.U. after   16 cycles
 SCF Done:  E(UN12SX) =  -3033.25021398     A.U. after   16 cycles
 SCF Done:  E(UMN12SX) =  -3033.64531904     A.U. after   15 cycles
 SCF Done:  E(UB1B95) =  -3034.37581305     A.U. after   15 cycles
 Normal termination of Gaussian 16 at Tue Feb 11 22:29:15 2020.
 SCF Done:  E(UB3PW91) =  -3033.97227272     A.U. after   14 cycles
 Normal termination of Gaussian 16 at Tue Feb 11 22:43:49 2020.
 SCF Done:  E(UM06L) =  -3034.18668374     A.U. after   18 cycles
 Normal termination of Gaussian 16 at Tue Feb 11 23:05:52 2020.
 Gaussian 16:  ES64L-G16RevA.03 25-Dec-2016

                         Standard orientation:
 ---------------------------------------------------------------------
 Center     Atomic      Atomic             Coordinates (Angstroms)
 Number     Number       Type             X           Y           Z
 ---------------------------------------------------------------------
      1          8           0       -0.406063   -0.182076   -0.518139
      2          6           0       -1.402606   -1.212838   -0.369229
      3          6           0       -2.818455   -0.116025   -0.189316
      4          6           0       -1.970254    1.121374   -0.279775
      5          6           0       -1.873013    1.838225   -1.575805
      6         26           0        1.376357    0.045393    0.039299
      7         17           0        1.836058    2.022622   -0.840591
      8          6           0       -1.567561    1.859324    0.942910
      9         17           0        2.478871   -1.688918   -0.726342
     10         17           0        1.349856    0.149504    2.250933
     11          1           0       -3.417790   -0.231088   -1.095335
     12          1           0       -2.431364    2.476784    1.238312
     13          1           0       -1.328373    1.198310    1.776299
     14          1           0       -0.722192    2.522417    0.747949
     15          1           0       -2.665349    2.604813   -1.578095
     16          1           0       -0.908852    2.344258   -1.672041
     17          1           0       -2.039538    1.174352   -2.425506
     18          6           0       -3.655805   -0.318418    1.060772
     19          1           0       -4.444840    0.439586    1.138296
     20          1           0       -4.144754   -1.296394    1.020972
     21          1           0       -3.061291   -0.281136    1.976538
     22          6           0       -1.173548   -2.060799    0.859422
     23          1           0       -1.990208   -2.775654    1.000659
     24          1           0       -0.244275   -2.628042    0.724044
     25          1           0       -1.059311   -1.455145    1.760228
     26          6           0       -1.508713   -2.009672   -1.649633
     27          1           0       -0.558070   -2.529225   -1.819487
     28          1           0       -2.310340   -2.753352   -1.586775
     29          1           0       -1.691819   -1.355660   -2.506791
 ---------------------------------------------------------------------

 SCF Done:  E(UB97D3) =  -3034.61013870     A.U. after   16 cycles
 Normal termination of Gaussian 16 at Tue Feb 11 23:20:34 2020.
