 Gaussian 16, Revision A.03,

 --------------------------------
 #t pop=none jul-cc-pvdz upbe1pbe
 --------------------------------
 ------------------------
 theory_abbreviation pbe0
 ------------------------
 Symbolic Z-matrix:
 Charge =  0 Multiplicity = 6

 SCF Done:  E(UPBE1PBE) =  -3033.09430696     A.U. after   22 cycles
 Normal termination of Gaussian 16 at Tue Feb 11 14:00:39 2020.

 ---------------------------------------------------------------------
 #t pop=none jul-cc-pvdz guess=read upbe1pbe empiricaldispersion=gd3bj
 ---------------------------------------------------------------------
 -----------------------------
 theory_abbreviation pbe0_d3bj
 -----------------------------
 Symbolic Z-matrix:
 Charge =  0 Multiplicity = 6

 SCF Done:  E(UPBE1PBE) =  -3033.13168414     A.U. after    1 cycles
 Normal termination of Gaussian 16 at Tue Feb 11 14:01:51 2020.

 -----------------------------------------
 #t pop=none jul-cc-pvdz guess=read ub3lyp
 -----------------------------------------
 -------------------------
 theory_abbreviation b3lyp
 -------------------------
 Symbolic Z-matrix:
 Charge =  0 Multiplicity = 6

 SCF Done:  E(UB3LYP) =  -3034.30747881     A.U. after   14 cycles
 Normal termination of Gaussian 16 at Tue Feb 11 14:16:57 2020.

 -------------------------------------------------------------------
 #t pop=none jul-cc-pvdz guess=read ub3lyp empiricaldispersion=gd3bj
 -------------------------------------------------------------------
 ------------------------------
 theory_abbreviation b3lyp_d3bj
 ------------------------------
 Symbolic Z-matrix:
 Charge =  0 Multiplicity = 6

 SCF Done:  E(UB3LYP) =  -3034.37707088     A.U. after    1 cycles
 Normal termination of Gaussian 16 at Tue Feb 11 14:18:08 2020.

 ----------------------------------------
 #t pop=none jul-cc-pvdz guess=read ub97d
 ----------------------------------------
 ------------------------
 theory_abbreviation b97d
 ------------------------
 Symbolic Z-matrix:
 Charge =  0 Multiplicity = 6

 SCF Done:  E(UB97D) =  -3034.55980153     A.U. after   16 cycles

 ----------------------------------------------------------------
 #t pop=none jul-cc-pvdz guess=read ub97d empiricaldispersion=gd3
 ----------------------------------------------------------------
 -------------------------
 theory_abbreviation b97d3
 -------------------------
 Symbolic Z-matrix:
 Charge =  0 Multiplicity = 6

 SCF Done:  E(UB97D) =  -3034.56091176     A.U. after    1 cycles
 SCF Done:  E(UBHandHLYP) =  -3033.94945112     A.U. after   18 cycles
 SCF Done:  E(UBHandH) =  -3026.29625587     A.U. after   16 cycles
 SCF Done:  E(ULC-wPBE) =  -3033.43480828     A.U. after   19 cycles
 SCF Done:  E(UB-P86) =  -3034.61449864     A.U. after   16 cycles
 SCF Done:  E(UmPW1LYP) =  -3034.02566289     A.U. after   15 cycles
 SCF Done:  E(UmPW1PBE) =  -3033.86880448     A.U. after   15 cycles
 SCF Done:  E(UmPW3PBE) =  -3033.64121059     A.U. after   13 cycles
 SCF Done:  E(UM11) =  -3033.78981299     A.U. after   18 cycles
 SCF Done:  E(UN12SX) =  -3033.23455550     A.U. after   16 cycles
 SCF Done:  E(UMN12SX) =  -3033.63215941     A.U. after   15 cycles
 SCF Done:  E(UB1B95) =  -3034.36219008     A.U. after   16 cycles
 Normal termination of Gaussian 16 at Tue Feb 11 22:59:48 2020.
 SCF Done:  E(UB3PW91) =  -3033.95655556     A.U. after   14 cycles
 Normal termination of Gaussian 16 at Tue Feb 11 23:14:17 2020.
 SCF Done:  E(UM06L) =  -3034.17321684     A.U. after   18 cycles
 Normal termination of Gaussian 16 at Tue Feb 11 23:34:09 2020.
 Gaussian 16:  ES64L-G16RevA.03 25-Dec-2016

                         Standard orientation:
 ---------------------------------------------------------------------
 Center     Atomic      Atomic             Coordinates (Angstroms)
 Number     Number       Type             X           Y           Z
 ---------------------------------------------------------------------
      1          8           0       -0.380317   -0.107937   -0.482204
      2          6           0       -1.308187   -1.110838   -0.415775
      3          6           0       -2.978111   -0.041097   -0.156924
      4          6           0       -2.100072    1.076395   -0.259123
      5          6           0       -1.907340    1.763743   -1.565137
      6         26           0        1.409303    0.050751    0.050186
      7         17           0        1.930933    2.018306   -0.809891
      8          6           0       -1.596415    1.784968    0.949151
      9         17           0        2.426208   -1.724606   -0.762415
     10         17           0        1.390968    0.083901    2.265862
     11          1           0       -3.534000   -0.254925   -1.068363
     12          1           0       -2.409200    2.448130    1.285853
     13          1           0       -1.360846    1.109305    1.772028
     14          1           0       -0.719921    2.394027    0.722673
     15          1           0       -2.602240    2.618976   -1.568812
     16          1           0       -0.890541    2.149301   -1.667093
     17          1           0       -2.161366    1.127177   -2.414501
     18          6           0       -3.715549   -0.378178    1.118514
     19          1           0       -4.581501    0.283455    1.249989
     20          1           0       -4.094432   -1.403842    1.081113
     21          1           0       -3.090451   -0.285175    2.009222
     22          6           0       -1.192902   -2.008941    0.785091
     23          1           0       -2.029388   -2.707578    0.860212
     24          1           0       -0.269011   -2.589942    0.651741
     25          1           0       -1.082769   -1.442644    1.710861
     26          6           0       -1.516094   -1.810730   -1.734166
     27          1           0       -0.582882   -2.347377   -1.954636
     28          1           0       -2.340012   -2.528394   -1.692950
     29          1           0       -1.680615   -1.097664   -2.544774
 ---------------------------------------------------------------------

 SCF Done:  E(UB97D3) =  -3034.59613067     A.U. after   15 cycles
 Normal termination of Gaussian 16 at Tue Feb 11 23:46:15 2020.
