 Gaussian 16, Revision A.03,

 --------------------------------
 #t pop=none jul-cc-pvdz upbe1pbe
 --------------------------------
 ------------------------
 theory_abbreviation pbe0
 ------------------------
 Symbolic Z-matrix:
 Charge =  0 Multiplicity = 6

 SCF Done:  E(UPBE1PBE) =  -3033.11999680     A.U. after   21 cycles
 Normal termination of Gaussian 16 at Tue Feb 11 20:05:20 2020.

 ---------------------------------------------------------------------
 #t pop=none jul-cc-pvdz guess=read upbe1pbe empiricaldispersion=gd3bj
 ---------------------------------------------------------------------
 -----------------------------
 theory_abbreviation pbe0_d3bj
 -----------------------------
 Symbolic Z-matrix:
 Charge =  0 Multiplicity = 6

 SCF Done:  E(UPBE1PBE) =  -3033.15659486     A.U. after    1 cycles
 Normal termination of Gaussian 16 at Tue Feb 11 20:06:28 2020.

 -----------------------------------------
 #t pop=none jul-cc-pvdz guess=read ub3lyp
 -----------------------------------------
 -------------------------
 theory_abbreviation b3lyp
 -------------------------
 Symbolic Z-matrix:
 Charge =  0 Multiplicity = 6

 SCF Done:  E(UB3LYP) =  -3034.33580499     A.U. after   15 cycles
 Normal termination of Gaussian 16 at Tue Feb 11 20:21:19 2020.

 -------------------------------------------------------------------
 #t pop=none jul-cc-pvdz guess=read ub3lyp empiricaldispersion=gd3bj
 -------------------------------------------------------------------
 ------------------------------
 theory_abbreviation b3lyp_d3bj
 ------------------------------
 Symbolic Z-matrix:
 Charge =  0 Multiplicity = 6

 SCF Done:  E(UB3LYP) =  -3034.40400224     A.U. after    1 cycles
 Normal termination of Gaussian 16 at Tue Feb 11 20:22:26 2020.

 ----------------------------------------
 #t pop=none jul-cc-pvdz guess=read ub97d
 ----------------------------------------
 ------------------------
 theory_abbreviation b97d
 ------------------------
 Symbolic Z-matrix:
 Charge =  0 Multiplicity = 6

 SCF Done:  E(UB97D) =  -3034.58839208     A.U. after   16 cycles

 ----------------------------------------------------------------
 #t pop=none jul-cc-pvdz guess=read ub97d empiricaldispersion=gd3
 ----------------------------------------------------------------
 -------------------------
 theory_abbreviation b97d3
 -------------------------
 Symbolic Z-matrix:
 Charge =  0 Multiplicity = 6

 SCF Done:  E(UB97D) =  -3034.58974597     A.U. after    1 cycles
 SCF Done:  E(UBHandHLYP) =  -3033.97521075     A.U. after   17 cycles
 SCF Done:  E(UBHandH) =  -3026.31805647     A.U. after   16 cycles
 SCF Done:  E(ULC-wPBE) =  -3033.45790929     A.U. after   19 cycles
 SCF Done:  E(UB-P86) =  -3034.64001427     A.U. after   17 cycles
 SCF Done:  E(UmPW1LYP) =  -3034.05355535     A.U. after   16 cycles
 SCF Done:  E(UmPW1PBE) =  -3033.89460601     A.U. after   16 cycles
 SCF Done:  E(UmPW3PBE) =  -3033.66761293     A.U. after   12 cycles
 SCF Done:  E(UM11) =  -3033.81586622     A.U. after   19 cycles
 SCF Done:  E(UN12SX) =  -3033.25903991     A.U. after   17 cycles
 SCF Done:  E(UMN12SX) =  -3033.65678990     A.U. after   17 cycles
 SCF Done:  E(UB1B95) =  -3034.38847454     A.U. after   15 cycles
 Normal termination of Gaussian 16 at Wed Feb 12 04:52:08 2020.
 SCF Done:  E(UB3PW91) =  -3033.98340400     A.U. after   15 cycles
 Normal termination of Gaussian 16 at Wed Feb 12 05:06:50 2020.
 SCF Done:  E(UM06L) =  -3034.20093337     A.U. after   17 cycles
 Normal termination of Gaussian 16 at Wed Feb 12 05:25:01 2020.
 Gaussian 16:  ES64L-G16RevA.03 25-Dec-2016

                         Standard orientation:
 ---------------------------------------------------------------------
 Center     Atomic      Atomic             Coordinates (Angstroms)
 Number     Number       Type             X           Y           Z
 ---------------------------------------------------------------------
      1          8           0       -0.309622   -0.206253   -0.533136
      2          6           0       -1.136561   -1.165930   -0.326267
      3          6           0       -2.712754   -0.272376    0.831180
      4          6           0       -2.962124    0.729160   -0.072954
      5          6           0       -3.972469    0.577753   -1.166492
      6         26           0        1.515662    0.179533   -0.082737
      7         17           0        1.849470    2.128638   -1.017734
      8          6           0       -2.193985    2.003891   -0.047692
      9         17           0        2.586545   -1.524599   -0.957431
     10         17           0        1.706093    0.243424    2.109821
     11          1           0       -3.374830   -1.136436    0.790441
     12          1           0       -2.672003    2.786414   -0.642202
     13          1           0       -2.014506    2.371289    0.966154
     14          1           0       -1.202755    1.802828   -0.488621
     15          1           0       -4.784039    1.297665   -0.991406
     16          1           0       -3.545493    0.833024   -2.144674
     17          1           0       -4.409538   -0.422080   -1.209511
     18          6           0       -2.052738    0.006556    2.164829
     19          1           0       -2.645702    0.737942    2.727292
     20          1           0       -1.990264   -0.897650    2.772823
     21          1           0       -1.043197    0.411313    2.059486
     22          6           0       -0.760283   -2.218491    0.696310
     23          1           0       -1.604143   -2.851261    0.978796
     24          1           0       -0.006746   -2.846072    0.200364
     25          1           0       -0.291549   -1.786203    1.579187
     26          6           0       -1.844123   -1.693479   -1.554740
     27          1           0       -1.131161   -2.367060   -2.048029
     28          1           0       -2.741170   -2.267421   -1.312174
     29          1           0       -2.078743   -0.893516   -2.255869
 ---------------------------------------------------------------------

 SCF Done:  E(UB97D3) =  -3034.62492491     A.U. after   15 cycles
 Normal termination of Gaussian 16 at Wed Feb 12 05:38:17 2020.
