 Gaussian 16, Revision A.03,

 --------------------------------
 #t pop=none jul-cc-pvdz upbe1pbe
 --------------------------------
 ------------------------
 theory_abbreviation pbe0
 ------------------------
 Symbolic Z-matrix:
 Charge =  0 Multiplicity = 6

 SCF Done:  E(UPBE1PBE) =  -3033.11752883     A.U. after   21 cycles
 Normal termination of Gaussian 16 at Tue Feb 11 14:00:52 2020.

 ---------------------------------------------------------------------
 #t pop=none jul-cc-pvdz guess=read upbe1pbe empiricaldispersion=gd3bj
 ---------------------------------------------------------------------
 -----------------------------
 theory_abbreviation pbe0_d3bj
 -----------------------------
 Symbolic Z-matrix:
 Charge =  0 Multiplicity = 6

 SCF Done:  E(UPBE1PBE) =  -3033.15359104     A.U. after    1 cycles
 Normal termination of Gaussian 16 at Tue Feb 11 14:02:02 2020.

 -----------------------------------------
 #t pop=none jul-cc-pvdz guess=read ub3lyp
 -----------------------------------------
 -------------------------
 theory_abbreviation b3lyp
 -------------------------
 Symbolic Z-matrix:
 Charge =  0 Multiplicity = 6

 SCF Done:  E(UB3LYP) =  -3034.33290735     A.U. after   16 cycles
 Normal termination of Gaussian 16 at Tue Feb 11 14:18:35 2020.

 -------------------------------------------------------------------
 #t pop=none jul-cc-pvdz guess=read ub3lyp empiricaldispersion=gd3bj
 -------------------------------------------------------------------
 ------------------------------
 theory_abbreviation b3lyp_d3bj
 ------------------------------
 Symbolic Z-matrix:
 Charge =  0 Multiplicity = 6

 SCF Done:  E(UB3LYP) =  -3034.40015642     A.U. after    1 cycles
 Normal termination of Gaussian 16 at Tue Feb 11 14:19:43 2020.

 ----------------------------------------
 #t pop=none jul-cc-pvdz guess=read ub97d
 ----------------------------------------
 ------------------------
 theory_abbreviation b97d
 ------------------------
 Symbolic Z-matrix:
 Charge =  0 Multiplicity = 6

 SCF Done:  E(UB97D) =  -3034.58566586     A.U. after   17 cycles

 ----------------------------------------------------------------
 #t pop=none jul-cc-pvdz guess=read ub97d empiricaldispersion=gd3
 ----------------------------------------------------------------
 -------------------------
 theory_abbreviation b97d3
 -------------------------
 Symbolic Z-matrix:
 Charge =  0 Multiplicity = 6

 SCF Done:  E(UB97D) =  -3034.58635589     A.U. after    1 cycles
 SCF Done:  E(UBHandHLYP) =  -3033.97174913     A.U. after   17 cycles
 SCF Done:  E(UBHandH) =  -3026.31513817     A.U. after   16 cycles
 SCF Done:  E(ULC-wPBE) =  -3033.45444366     A.U. after   18 cycles
 SCF Done:  E(UB-P86) =  -3034.63712062     A.U. after   17 cycles
 SCF Done:  E(UmPW1LYP) =  -3034.05048705     A.U. after   16 cycles
 SCF Done:  E(UmPW1PBE) =  -3033.89218516     A.U. after   16 cycles
 SCF Done:  E(UmPW3PBE) =  -3033.66519941     A.U. after   13 cycles
 SCF Done:  E(UM11) =  -3033.81291048     A.U. after   19 cycles
 SCF Done:  E(UN12SX) =  -3033.25678529     A.U. after   17 cycles
 SCF Done:  E(UMN12SX) =  -3033.65354851     A.U. after   17 cycles
 SCF Done:  E(UB1B95) =  -3034.38555828     A.U. after   16 cycles
 Normal termination of Gaussian 16 at Tue Feb 11 23:10:30 2020.
 SCF Done:  E(UB3PW91) =  -3033.98096782     A.U. after   15 cycles
 Normal termination of Gaussian 16 at Tue Feb 11 23:26:02 2020.
 SCF Done:  E(UM06L) =  -3034.19753414     A.U. after   16 cycles
 Normal termination of Gaussian 16 at Tue Feb 11 23:43:44 2020.
 Gaussian 16:  ES64L-G16RevA.03 25-Dec-2016

                         Standard orientation:
 ---------------------------------------------------------------------
 Center     Atomic      Atomic             Coordinates (Angstroms)
 Number     Number       Type             X           Y           Z
 ---------------------------------------------------------------------
      1          8           0       -0.297154   -0.174789   -0.455894
      2          6           0       -1.153298   -1.111862   -0.199872
      3          6           0       -2.638538   -0.212325    0.889804
      4          6           0       -3.102125    0.657771   -0.079820
      5          6           0       -4.225647    0.300642   -0.996007
      6         26           0        1.547374    0.172920   -0.104327
      7         17           0        1.884253    2.099951   -1.087436
      8          6           0       -2.417861    1.957929   -0.304248
      9         17           0        2.538802   -1.571532   -0.999960
     10         17           0        1.846872    0.266102    2.076466
     11          1           0       -3.247986   -1.101401    1.049118
     12          1           0       -2.914923    2.574609   -1.056002
     13          1           0       -2.301939    2.529517    0.622702
     14          1           0       -1.391755    1.731202   -0.647838
     15          1           0       -5.059644    0.990439   -0.802557
     16          1           0       -3.947697    0.448608   -2.047031
     17          1           0       -4.586299   -0.720049   -0.852839
     18          6           0       -1.897918    0.312989    2.105981
     19          1           0       -2.491880    1.091299    2.598927
     20          1           0       -1.726959   -0.479815    2.835596
     21          1           0       -0.928239    0.744284    1.848315
     22          6           0       -0.748027   -2.143798    0.841460
     23          1           0       -1.580550   -2.779768    1.150051
     24          1           0        0.006805   -2.772495    0.350214
     25          1           0       -0.273442   -1.686182    1.708633
     26          6           0       -1.832781   -1.695896   -1.423395
     27          1           0       -1.101247   -2.366440   -1.891327
     28          1           0       -2.721778   -2.280192   -1.173989
     29          1           0       -2.078534   -0.920787   -2.149923
 ---------------------------------------------------------------------

 SCF Done:  E(UB97D3) =  -3034.62108751     A.U. after   15 cycles
 Normal termination of Gaussian 16 at Tue Feb 11 23:55:34 2020.
