 Gaussian 16, Revision A.03,

 --------------------------------
 #t pop=none jul-cc-pvdz upbe1pbe
 --------------------------------
 ------------------------
 theory_abbreviation pbe0
 ------------------------
 Symbolic Z-matrix:
 Charge =  0 Multiplicity = 6

 SCF Done:  E(UPBE1PBE) =  -3033.11611986     A.U. after   20 cycles
 Normal termination of Gaussian 16 at Tue Feb 11 20:05:38 2020.

 ---------------------------------------------------------------------
 #t pop=none jul-cc-pvdz guess=read upbe1pbe empiricaldispersion=gd3bj
 ---------------------------------------------------------------------
 -----------------------------
 theory_abbreviation pbe0_d3bj
 -----------------------------
 Symbolic Z-matrix:
 Charge =  0 Multiplicity = 6

 SCF Done:  E(UPBE1PBE) =  -3033.15379937     A.U. after    1 cycles
 Normal termination of Gaussian 16 at Tue Feb 11 20:06:49 2020.

 -----------------------------------------
 #t pop=none jul-cc-pvdz guess=read ub3lyp
 -----------------------------------------
 -------------------------
 theory_abbreviation b3lyp
 -------------------------
 Symbolic Z-matrix:
 Charge =  0 Multiplicity = 6

 SCF Done:  E(UB3LYP) =  -3034.33083833     A.U. after   13 cycles
 Normal termination of Gaussian 16 at Tue Feb 11 20:20:44 2020.

 -------------------------------------------------------------------
 #t pop=none jul-cc-pvdz guess=read ub3lyp empiricaldispersion=gd3bj
 -------------------------------------------------------------------
 ------------------------------
 theory_abbreviation b3lyp_d3bj
 ------------------------------
 Symbolic Z-matrix:
 Charge =  0 Multiplicity = 6

 SCF Done:  E(UB3LYP) =  -3034.40107915     A.U. after    1 cycles
 Normal termination of Gaussian 16 at Tue Feb 11 20:21:56 2020.

 ----------------------------------------
 #t pop=none jul-cc-pvdz guess=read ub97d
 ----------------------------------------
 ------------------------
 theory_abbreviation b97d
 ------------------------
 Symbolic Z-matrix:
 Charge =  0 Multiplicity = 6

 SCF Done:  E(UB97D) =  -3034.58495215     A.U. after   14 cycles

 ----------------------------------------------------------------
 #t pop=none jul-cc-pvdz guess=read ub97d empiricaldispersion=gd3
 ----------------------------------------------------------------
 -------------------------
 theory_abbreviation b97d3
 -------------------------
 Symbolic Z-matrix:
 Charge =  0 Multiplicity = 6

 SCF Done:  E(UB97D) =  -3034.58587950     A.U. after    1 cycles
 SCF Done:  E(UBHandHLYP) =  -3033.97176120     A.U. after   17 cycles
 SCF Done:  E(UBHandH) =  -3026.31676949     A.U. after   16 cycles
 SCF Done:  E(ULC-wPBE) =  -3033.45597551     A.U. after   19 cycles
 SCF Done:  E(UB-P86) =  -3034.63689635     A.U. after   17 cycles
 SCF Done:  E(UmPW1LYP) =  -3034.04893245     A.U. after   15 cycles
 SCF Done:  E(UmPW1PBE) =  -3033.89048758     A.U. after   16 cycles
 SCF Done:  E(UmPW3PBE) =  -3033.66324625     A.U. after   12 cycles
 SCF Done:  E(UM11) =  -3033.81418151     A.U. after   19 cycles
 SCF Done:  E(UN12SX) =  -3033.25554058     A.U. after   17 cycles
 SCF Done:  E(UMN12SX) =  -3033.65506523     A.U. after   17 cycles
 SCF Done:  E(UB1B95) =  -3034.38537380     A.U. after   16 cycles
 Normal termination of Gaussian 16 at Wed Feb 12 05:22:06 2020.
 SCF Done:  E(UB3PW91) =  -3033.97880074     A.U. after   15 cycles
 Normal termination of Gaussian 16 at Wed Feb 12 05:37:58 2020.
 SCF Done:  E(UM06L) =  -3034.19876466     A.U. after   18 cycles
 Normal termination of Gaussian 16 at Wed Feb 12 05:58:12 2020.
 Gaussian 16:  ES64L-G16RevA.03 25-Dec-2016

                         Standard orientation:
 ---------------------------------------------------------------------
 Center     Atomic      Atomic             Coordinates (Angstroms)
 Number     Number       Type             X           Y           Z
 ---------------------------------------------------------------------
      1          8           0       -0.298908   -0.199823   -0.764011
      2          6           0       -1.188252   -1.119732   -0.611568
      3          6           0       -2.834464   -0.251640    0.464957
      4          6           0       -2.527749    0.960008   -0.095369
      5          6           0       -3.047596    1.370575   -1.436447
      6         26           0        1.429893    0.125233   -0.009163
      7         17           0        2.010511    2.069986   -0.830600
      8          6           0       -1.630975    1.955685    0.557653
      9         17           0        2.629710   -1.588498   -0.667859
     10         17           0        1.181733    0.164923    2.189926
     11          1           0       -3.601155   -0.836896   -0.039397
     12          1           0       -2.216644    2.854538    0.796306
     13          1           0       -1.161371    1.597007    1.471689
     14          1           0       -0.846094    2.271828   -0.140149
     15          1           0       -3.527218    2.353767   -1.351063
     16          1           0       -2.212847    1.496004   -2.138822
     17          1           0       -3.773924    0.667769   -1.849281
     18          6           0       -2.674664   -0.543044    1.941744
     19          1           0       -3.437873    0.009024    2.504339
     20          1           0       -2.823164   -1.603904    2.154044
     21          1           0       -1.698183   -0.251932    2.334527
     22          6           0       -0.894073   -2.238396    0.361227
     23          1           0       -1.752842   -2.893225    0.518176
     24          1           0       -0.092181   -2.823114   -0.111055
     25          1           0       -0.510649   -1.873184    1.313028
     26          6           0       -1.880380   -1.558421   -1.885504
     27          1           0       -1.153454   -2.193902   -2.408355
     28          1           0       -2.777652   -2.151404   -1.697956
     29          1           0       -2.105001   -0.719046   -2.540836
 ---------------------------------------------------------------------

 SCF Done:  E(UB97D3) =  -3034.62121369     A.U. after   15 cycles
 Normal termination of Gaussian 16 at Wed Feb 12 06:10:29 2020.
