 Gaussian 16, Revision A.03,

 --------------------------------
 #t pop=none jul-cc-pvdz upbe1pbe
 --------------------------------
 ------------------------
 theory_abbreviation pbe0
 ------------------------
 Symbolic Z-matrix:
 Charge =  0 Multiplicity = 6

 SCF Done:  E(UPBE1PBE) =  -3033.10638073     A.U. after   21 cycles
 Normal termination of Gaussian 16 at Tue Feb 11 14:50:45 2020.

 ---------------------------------------------------------------------
 #t pop=none jul-cc-pvdz guess=read upbe1pbe empiricaldispersion=gd3bj
 ---------------------------------------------------------------------
 -----------------------------
 theory_abbreviation pbe0_d3bj
 -----------------------------
 Symbolic Z-matrix:
 Charge =  0 Multiplicity = 6

 SCF Done:  E(UPBE1PBE) =  -3033.14311812     A.U. after    1 cycles
 Normal termination of Gaussian 16 at Tue Feb 11 14:52:14 2020.

 -----------------------------------------
 #t pop=none jul-cc-pvdz guess=read ub3lyp
 -----------------------------------------
 -------------------------
 theory_abbreviation b3lyp
 -------------------------
 Symbolic Z-matrix:
 Charge =  0 Multiplicity = 6

 SCF Done:  E(UB3LYP) =  -3034.31765267     A.U. after   15 cycles
 Normal termination of Gaussian 16 at Tue Feb 11 15:11:55 2020.

 -------------------------------------------------------------------
 #t pop=none jul-cc-pvdz guess=read ub3lyp empiricaldispersion=gd3bj
 -------------------------------------------------------------------
 ------------------------------
 theory_abbreviation b3lyp_d3bj
 ------------------------------
 Symbolic Z-matrix:
 Charge =  0 Multiplicity = 6

 SCF Done:  E(UB3LYP) =  -3034.38616863     A.U. after    1 cycles
 Normal termination of Gaussian 16 at Tue Feb 11 15:13:22 2020.

 ----------------------------------------
 #t pop=none jul-cc-pvdz guess=read ub97d
 ----------------------------------------
 ------------------------
 theory_abbreviation b97d
 ------------------------
 Symbolic Z-matrix:
 Charge =  0 Multiplicity = 6

 SCF Done:  E(UB97D) =  -3034.56862436     A.U. after   16 cycles

 ----------------------------------------------------------------
 #t pop=none jul-cc-pvdz guess=read ub97d empiricaldispersion=gd3
 ----------------------------------------------------------------
 -------------------------
 theory_abbreviation b97d3
 -------------------------
 Symbolic Z-matrix:
 Charge =  0 Multiplicity = 6

 SCF Done:  E(UB97D) =  -3034.56933050     A.U. after    1 cycles
 SCF Done:  E(UBHandHLYP) =  -3033.96161092     A.U. after   17 cycles
 SCF Done:  E(UBHandH) =  -3026.31169076     A.U. after   13 cycles
 SCF Done:  E(ULC-wPBE) =  -3033.44878166     A.U. after   17 cycles
 SCF Done:  E(UB-P86) =  -3034.62337778     A.U. after   18 cycles
 SCF Done:  E(UmPW1LYP) =  -3034.03592432     A.U. after   15 cycles
 SCF Done:  E(UmPW1PBE) =  -3033.88072263     A.U. after   15 cycles
 SCF Done:  E(UmPW3PBE) =  -3033.65274600     A.U. after   14 cycles
 SCF Done:  E(UM11) =  -3033.80223460     A.U. after   18 cycles
 SCF Done:  E(UN12SX) =  -3033.24624873     A.U. after   17 cycles
 SCF Done:  E(UMN12SX) =  -3033.64274382     A.U. after   16 cycles
 SCF Done:  E(UB1B95) =  -3034.37296244     A.U. after   16 cycles
 Normal termination of Gaussian 16 at Wed Feb 12 01:52:00 2020.
 SCF Done:  E(UB3PW91) =  -3033.96797032     A.U. after   15 cycles
 Normal termination of Gaussian 16 at Wed Feb 12 02:11:51 2020.
 SCF Done:  E(UM06L) =  -3034.18482092     A.U. after   18 cycles
 Normal termination of Gaussian 16 at Wed Feb 12 02:34:43 2020.
 Gaussian 16:  ES64L-G16RevA.03 25-Dec-2016

                         Standard orientation:
 ---------------------------------------------------------------------
 Center     Atomic      Atomic             Coordinates (Angstroms)
 Number     Number       Type             X           Y           Z
 ---------------------------------------------------------------------
      1          8           0       -0.347330   -0.169994   -0.539685
      2          6           0       -1.265293   -1.153017   -0.370809
      3          6           0       -2.536605   -0.472449    0.529521
      4          6           0       -2.646378    0.826843   -0.067205
      5          6           0       -3.492304    1.046639   -1.265871
      6         26           0        1.415978    0.155324   -0.064044
      7         17           0        1.630660    2.253934   -0.762308
      8          6           0       -1.879706    1.969564    0.416572
      9         17           0        2.694869   -1.349436   -1.028605
     10         17           0        1.495346    0.068951    2.157743
     11          1           0       -3.393454   -1.097895    0.264575
     12          1           0       -2.262499    2.930193    0.066187
     13          1           0       -1.701259    1.967352    1.492697
     14          1           0       -0.878042    1.823014   -0.047844
     15          1           0       -4.260813    1.787939   -1.001711
     16          1           0       -2.895901    1.507772   -2.064944
     17          1           0       -3.981436    0.144316   -1.630770
     18          6           0       -2.240525   -0.497216    2.032243
     19          1           0       -2.965931    0.120917    2.571811
     20          1           0       -2.328003   -1.516203    2.412804
     21          1           0       -1.234305   -0.137009    2.257761
     22          6           0       -0.746133   -2.352684    0.431471
     23          1           0       -1.532144   -3.091519    0.616546
     24          1           0        0.037440   -2.820291   -0.174548
     25          1           0       -0.295558   -2.048447    1.376119
     26          6           0       -1.794797   -1.625051   -1.731613
     27          1           0       -0.980106   -2.162626   -2.225898
     28          1           0       -2.649055   -2.303399   -1.634538
     29          1           0       -2.060176   -0.786987   -2.377593
 ---------------------------------------------------------------------

 SCF Done:  E(UB97D3) =  -3034.60384518     A.U. after   16 cycles
 Normal termination of Gaussian 16 at Wed Feb 12 02:49:25 2020.
