 Gaussian 16, Revision A.03,

 --------------------------------
 #t pop=none jul-cc-pvdz upbe1pbe
 --------------------------------
 ------------------------
 theory_abbreviation pbe0
 ------------------------
 Symbolic Z-matrix:
 Charge =  0 Multiplicity = 6

 SCF Done:  E(UPBE1PBE) =  -3033.11350526     A.U. after   21 cycles
 Normal termination of Gaussian 16 at Tue Feb 11 23:41:06 2020.

 ---------------------------------------------------------------------
 #t pop=none jul-cc-pvdz guess=read upbe1pbe empiricaldispersion=gd3bj
 ---------------------------------------------------------------------
 -----------------------------
 theory_abbreviation pbe0_d3bj
 -----------------------------
 Symbolic Z-matrix:
 Charge =  0 Multiplicity = 6

 SCF Done:  E(UPBE1PBE) =  -3033.14938370     A.U. after    1 cycles
 Normal termination of Gaussian 16 at Tue Feb 11 23:42:24 2020.

 -----------------------------------------
 #t pop=none jul-cc-pvdz guess=read ub3lyp
 -----------------------------------------
 -------------------------
 theory_abbreviation b3lyp
 -------------------------
 Symbolic Z-matrix:
 Charge =  0 Multiplicity = 6

 SCF Done:  E(UB3LYP) =  -3034.32686527     A.U. after   15 cycles
 Normal termination of Gaussian 16 at Tue Feb 11 23:58:36 2020.

 -------------------------------------------------------------------
 #t pop=none jul-cc-pvdz guess=read ub3lyp empiricaldispersion=gd3bj
 -------------------------------------------------------------------
 ------------------------------
 theory_abbreviation b3lyp_d3bj
 ------------------------------
 Symbolic Z-matrix:
 Charge =  0 Multiplicity = 6

 SCF Done:  E(UB3LYP) =  -3034.39379425     A.U. after    1 cycles
 Normal termination of Gaussian 16 at Wed Feb 12 00:01:16 2020.

 ----------------------------------------
 #t pop=none jul-cc-pvdz guess=read ub97d
 ----------------------------------------
 ------------------------
 theory_abbreviation b97d
 ------------------------
 Symbolic Z-matrix:
 Charge =  0 Multiplicity = 6

 SCF Done:  E(UB97D) =  -3034.57929654     A.U. after   16 cycles

 ----------------------------------------------------------------
 #t pop=none jul-cc-pvdz guess=read ub97d empiricaldispersion=gd3
 ----------------------------------------------------------------
 -------------------------
 theory_abbreviation b97d3
 -------------------------
 Symbolic Z-matrix:
 Charge =  0 Multiplicity = 6

 SCF Done:  E(UB97D) =  -3034.57941306     A.U. after    1 cycles
 SCF Done:  E(UBHandHLYP) =  -3033.96677111     A.U. after   17 cycles
 SCF Done:  E(UBHandH) =  -3026.31362341     A.U. after   16 cycles
 SCF Done:  E(ULC-wPBE) =  -3033.45132702     A.U. after   18 cycles
 SCF Done:  E(UB-P86) =  -3034.63203041     A.U. after   17 cycles
 SCF Done:  E(UmPW1LYP) =  -3034.04448345     A.U. after   15 cycles
 SCF Done:  E(UmPW1PBE) =  -3033.88804168     A.U. after   15 cycles
 SCF Done:  E(UmPW3PBE) =  -3033.66075217     A.U. after   15 cycles
 SCF Done:  E(UM11) =  -3033.80812201     A.U. after   19 cycles
 SCF Done:  E(UN12SX) =  -3033.25314438     A.U. after   17 cycles
 SCF Done:  E(UMN12SX) =  -3033.64840614     A.U. after   16 cycles
 SCF Done:  E(UB1B95) =  -3034.38039596     A.U. after   16 cycles
 Normal termination of Gaussian 16 at Wed Feb 12 09:05:28 2020.
 SCF Done:  E(UB3PW91) =  -3033.97626422     A.U. after   15 cycles
 Normal termination of Gaussian 16 at Wed Feb 12 09:22:08 2020.
 SCF Done:  E(UM06L) =  -3034.19256112     A.U. after   16 cycles
 Normal termination of Gaussian 16 at Wed Feb 12 09:41:01 2020.
 Gaussian 16:  ES64L-G16RevA.03 25-Dec-2016

                         Standard orientation:
 ---------------------------------------------------------------------
 Center     Atomic      Atomic             Coordinates (Angstroms)
 Number     Number       Type             X           Y           Z
 ---------------------------------------------------------------------
      1          8           0       -0.315944   -0.118648   -0.424569
      2          6           0       -1.212051   -1.071353   -0.224702
      3          6           0       -2.570388   -0.336204    0.793620
      4          6           0       -3.024852    0.687469   -0.057834
      5          6           0       -4.144294    0.471775   -1.013420
      6         26           0        1.515820    0.173034   -0.093775
      7         17           0        1.833686    2.177562   -0.939443
      8          6           0       -2.295865    1.962656   -0.118542
      9         17           0        2.531512   -1.490290   -1.114839
     10         17           0        1.828660    0.130369    2.094799
     11          1           0       -3.254181   -1.184425    0.851200
     12          1           0       -2.749614    2.698108   -0.784790
     13          1           0       -2.112505    2.395729    0.869655
     14          1           0       -1.285705    1.686332   -0.496916
     15          1           0       -4.975617    1.124154   -0.705853
     16          1           0       -3.869603    0.792207   -2.026020
     17          1           0       -4.503663   -0.558279   -1.031341
     18          6           0       -1.942764    0.058719    2.128169
     19          1           0       -2.589292    0.769788    2.653485
     20          1           0       -1.825537   -0.815744    2.769510
     21          1           0       -0.958658    0.513682    1.999707
     22          6           0       -0.744227   -2.210465    0.686092
     23          1           0       -1.558495   -2.890484    0.950260
     24          1           0        0.006429   -2.767270    0.112809
     25          1           0       -0.257432   -1.837789    1.586857
     26          6           0       -1.809454   -1.592580   -1.528854
     27          1           0       -1.030597   -2.183450   -2.022609
     28          1           0       -2.678391   -2.236941   -1.364641
     29          1           0       -2.073116   -0.775313   -2.202569
 ---------------------------------------------------------------------

 SCF Done:  E(UB97D3) =  -3034.61368675     A.U. after   16 cycles
 Normal termination of Gaussian 16 at Wed Feb 12 09:55:00 2020.
