 Gaussian 16, Revision A.03,

 --------------------------------
 #t pop=none jul-cc-pvdz upbe1pbe
 --------------------------------
 ------------------------
 theory_abbreviation pbe0
 ------------------------
 Symbolic Z-matrix:
 Charge =  0 Multiplicity = 6

 SCF Done:  E(UPBE1PBE) =  -3033.13634246     A.U. after   19 cycles
 Normal termination of Gaussian 16 at Tue Feb 11 13:58:01 2020.

 ---------------------------------------------------------------------
 #t pop=none jul-cc-pvdz guess=read upbe1pbe empiricaldispersion=gd3bj
 ---------------------------------------------------------------------
 -----------------------------
 theory_abbreviation pbe0_d3bj
 -----------------------------
 Symbolic Z-matrix:
 Charge =  0 Multiplicity = 6

 SCF Done:  E(UPBE1PBE) =  -3033.17266556     A.U. after    1 cycles
 Normal termination of Gaussian 16 at Tue Feb 11 13:59:11 2020.

 -----------------------------------------
 #t pop=none jul-cc-pvdz guess=read ub3lyp
 -----------------------------------------
 -------------------------
 theory_abbreviation b3lyp
 -------------------------
 Symbolic Z-matrix:
 Charge =  0 Multiplicity = 6

 SCF Done:  E(UB3LYP) =  -3034.35474517     A.U. after   13 cycles
 Normal termination of Gaussian 16 at Tue Feb 11 14:12:44 2020.

 -------------------------------------------------------------------
 #t pop=none jul-cc-pvdz guess=read ub3lyp empiricaldispersion=gd3bj
 -------------------------------------------------------------------
 ------------------------------
 theory_abbreviation b3lyp_d3bj
 ------------------------------
 Symbolic Z-matrix:
 Charge =  0 Multiplicity = 6

 SCF Done:  E(UB3LYP) =  -3034.42199483     A.U. after    1 cycles
 Normal termination of Gaussian 16 at Tue Feb 11 14:13:54 2020.

 ----------------------------------------
 #t pop=none jul-cc-pvdz guess=read ub97d
 ----------------------------------------
 ------------------------
 theory_abbreviation b97d
 ------------------------
 Symbolic Z-matrix:
 Charge =  0 Multiplicity = 6

 SCF Done:  E(UB97D) =  -3034.60530034     A.U. after   16 cycles

 ----------------------------------------------------------------
 #t pop=none jul-cc-pvdz guess=read ub97d empiricaldispersion=gd3
 ----------------------------------------------------------------
 -------------------------
 theory_abbreviation b97d3
 -------------------------
 Symbolic Z-matrix:
 Charge =  0 Multiplicity = 6

 SCF Done:  E(UB97D) =  -3034.60665154     A.U. after    1 cycles
 SCF Done:  E(UBHandHLYP) =  -3033.99637520     A.U. after   17 cycles
 SCF Done:  E(UBHandH) =  -3026.33256629     A.U. after   14 cycles
 SCF Done:  E(ULC-wPBE) =  -3033.47715733     A.U. after   19 cycles
 SCF Done:  E(UB-P86) =  -3034.65425340     A.U. after   17 cycles
 SCF Done:  E(UmPW1LYP) =  -3034.07306761     A.U. after   13 cycles
 SCF Done:  E(UmPW1PBE) =  -3033.91081736     A.U. after   13 cycles
 SCF Done:  E(UmPW3PBE) =  -3033.68382314     A.U. after   13 cycles
 SCF Done:  E(UM11) =  -3033.83465787     A.U. after   17 cycles
 SCF Done:  E(UN12SX) =  -3033.27524212     A.U. after   16 cycles
 SCF Done:  E(UMN12SX) =  -3033.67731285     A.U. after   16 cycles
 SCF Done:  E(UB1B95) =  -3034.40676410     A.U. after   14 cycles
 Normal termination of Gaussian 16 at Tue Feb 11 23:07:41 2020.
 SCF Done:  E(UB3PW91) =  -3034.00004496     A.U. after   13 cycles
 Normal termination of Gaussian 16 at Tue Feb 11 23:20:49 2020.
 SCF Done:  E(UM06L) =  -3034.22199879     A.U. after   17 cycles
 Normal termination of Gaussian 16 at Tue Feb 11 23:39:06 2020.
 Gaussian 16:  ES64L-G16RevA.03 25-Dec-2016

                         Standard orientation:
 ---------------------------------------------------------------------
 Center     Atomic      Atomic             Coordinates (Angstroms)
 Number     Number       Type             X           Y           Z
 ---------------------------------------------------------------------
      1          8           0        0.170449    0.396673   -0.886602
      2          6           0        0.968682    1.342988   -0.684390
      3          6           0        3.045909    0.160038    0.570903
      4          6           0        2.704407   -0.924851   -0.155112
      5          6           0        3.235961   -1.139586   -1.546061
      6         26           0       -1.493178   -0.171015    0.005859
      7         17           0       -2.048642   -2.008720   -1.014767
      8          6           0        1.787367   -2.008451    0.331625
      9         17           0       -2.766440    1.566907   -0.372991
     10         17           0       -1.066089   -0.432711    2.142786
     11          1           0        3.759026    0.853040    0.123357
     12          1           0        2.315006   -2.971389    0.341238
     13          1           0        1.386328   -1.828783    1.328749
     14          1           0        0.942989   -2.129933   -0.360032
     15          1           0        3.795985   -2.082731   -1.591940
     16          1           0        2.414486   -1.235561   -2.268981
     17          1           0        3.904386   -0.336312   -1.868733
     18          6           0        2.769708    0.377525    2.035952
     19          1           0        3.558113   -0.092252    2.639698
     20          1           0        2.774222    1.441399    2.291428
     21          1           0        1.814544   -0.042634    2.359765
     22          6           0        0.791055    2.257506    0.486834
     23          1           0        1.678613    2.861598    0.677175
     24          1           0       -0.039566    2.928506    0.220716
     25          1           0        0.492395    1.714733    1.383941
     26          6           0        1.810384    1.805114   -1.835357
     27          1           0        1.228397    2.590911   -2.339467
     28          1           0        2.752696    2.246691   -1.509075
     29          1           0        1.980487    1.000932   -2.549197
 ---------------------------------------------------------------------

 SCF Done:  E(UB97D3) =  -3034.64147435     A.U. after   16 cycles
 Normal termination of Gaussian 16 at Tue Feb 11 23:51:31 2020.
