 Gaussian 16, Revision A.03,

 --------------------------------
 #t pop=none jul-cc-pvdz upbe1pbe
 --------------------------------
 ------------------------
 theory_abbreviation pbe0
 ------------------------
 Symbolic Z-matrix:
 Charge =  0 Multiplicity = 6

 SCF Done:  E(UPBE1PBE) =  -3033.13244581     A.U. after   20 cycles
 Normal termination of Gaussian 16 at Tue Feb 11 13:59:10 2020.

 ---------------------------------------------------------------------
 #t pop=none jul-cc-pvdz guess=read upbe1pbe empiricaldispersion=gd3bj
 ---------------------------------------------------------------------
 -----------------------------
 theory_abbreviation pbe0_d3bj
 -----------------------------
 Symbolic Z-matrix:
 Charge =  0 Multiplicity = 6

 SCF Done:  E(UPBE1PBE) =  -3033.16913044     A.U. after    1 cycles
 Normal termination of Gaussian 16 at Tue Feb 11 14:00:20 2020.

 -----------------------------------------
 #t pop=none jul-cc-pvdz guess=read ub3lyp
 -----------------------------------------
 -------------------------
 theory_abbreviation b3lyp
 -------------------------
 Symbolic Z-matrix:
 Charge =  0 Multiplicity = 6

 SCF Done:  E(UB3LYP) =  -3034.35026625     A.U. after   13 cycles
 Normal termination of Gaussian 16 at Tue Feb 11 14:14:02 2020.

 -------------------------------------------------------------------
 #t pop=none jul-cc-pvdz guess=read ub3lyp empiricaldispersion=gd3bj
 -------------------------------------------------------------------
 ------------------------------
 theory_abbreviation b3lyp_d3bj
 ------------------------------
 Symbolic Z-matrix:
 Charge =  0 Multiplicity = 6

 SCF Done:  E(UB3LYP) =  -3034.41826591     A.U. after    1 cycles
 Normal termination of Gaussian 16 at Tue Feb 11 14:15:12 2020.

 ----------------------------------------
 #t pop=none jul-cc-pvdz guess=read ub97d
 ----------------------------------------
 ------------------------
 theory_abbreviation b97d
 ------------------------
 Symbolic Z-matrix:
 Charge =  0 Multiplicity = 6

 SCF Done:  E(UB97D) =  -3034.60088257     A.U. after   15 cycles

 ----------------------------------------------------------------
 #t pop=none jul-cc-pvdz guess=read ub97d empiricaldispersion=gd3
 ----------------------------------------------------------------
 -------------------------
 theory_abbreviation b97d3
 -------------------------
 Symbolic Z-matrix:
 Charge =  0 Multiplicity = 6

 SCF Done:  E(UB97D) =  -3034.60293740     A.U. after    1 cycles
 SCF Done:  E(UBHandHLYP) =  -3033.99235265     A.U. after   18 cycles
 SCF Done:  E(UBHandH) =  -3026.32987660     A.U. after   14 cycles
 SCF Done:  E(ULC-wPBE) =  -3033.47418770     A.U. after   17 cycles
 SCF Done:  E(UB-P86) =  -3034.65076840     A.U. after   17 cycles
 SCF Done:  E(UmPW1LYP) =  -3034.06861203     A.U. after   13 cycles
 SCF Done:  E(UmPW1PBE) =  -3033.90693337     A.U. after   14 cycles
 SCF Done:  E(UmPW3PBE) =  -3033.67983017     A.U. after   13 cycles
 SCF Done:  E(UM11) =  -3033.83159610     A.U. after   17 cycles
 SCF Done:  E(UN12SX) =  -3033.27126615     A.U. after   17 cycles
 SCF Done:  E(UMN12SX) =  -3033.67384555     A.U. after   16 cycles
 SCF Done:  E(UB1B95) =  -3034.40330306     A.U. after   14 cycles
 Normal termination of Gaussian 16 at Tue Feb 11 22:34:16 2020.
 SCF Done:  E(UB3PW91) =  -3033.99597845     A.U. after   15 cycles
 Normal termination of Gaussian 16 at Tue Feb 11 22:49:41 2020.
 SCF Done:  E(UM06L) =  -3034.21861141     A.U. after   17 cycles
 Normal termination of Gaussian 16 at Tue Feb 11 23:09:36 2020.
 Gaussian 16:  ES64L-G16RevA.03 25-Dec-2016

                         Standard orientation:
 ---------------------------------------------------------------------
 Center     Atomic      Atomic             Coordinates (Angstroms)
 Number     Number       Type             X           Y           Z
 ---------------------------------------------------------------------
      1          8           0        0.262646    0.305909   -0.785657
      2          6           0        1.015171    1.295314   -0.630263
      3          6           0        3.232363   -0.024948    0.320244
      4          6           0        2.501505   -1.005438   -0.246825
      5          6           0        2.661131   -1.362027   -1.699575
      6         26           0       -1.472223   -0.133198    0.049713
      7         17           0       -2.103348   -1.963818   -0.939814
      8          6           0        1.590413   -1.923740    0.516411
      9         17           0       -2.600571    1.670446   -0.475228
     10         17           0       -1.200745   -0.309701    2.218066
     11          1           0        3.931686    0.512259   -0.321138
     12          1           0        2.104389   -2.879913    0.687107
     13          1           0        1.282378   -1.534864    1.487104
     14          1           0        0.692532   -2.160032   -0.064146
     15          1           0        2.993441   -2.404326   -1.791664
     16          1           0        1.699853   -1.296140   -2.224127
     17          1           0        3.395574   -0.730496   -2.208208
     18          6           0        3.317893    0.309592    1.783756
     19          1           0        4.212999   -0.148076    2.227054
     20          1           0        3.408781    1.389550    1.946253
     21          1           0        2.455468   -0.046540    2.353200
     22          6           0        0.930450    2.143202    0.598209
     23          1           0        1.819898    2.759529    0.733230
     24          1           0        0.064294    2.807144    0.456439
     25          1           0        0.735291    1.541195    1.486488
     26          6           0        1.757010    1.821591   -1.819057
     27          1           0        1.120739    2.611161   -2.246655
     28          1           0        2.709415    2.275603   -1.541272
     29          1           0        1.893569    1.050794   -2.575762
 ---------------------------------------------------------------------

 SCF Done:  E(UB97D3) =  -3034.63751997     A.U. after   16 cycles
 Normal termination of Gaussian 16 at Tue Feb 11 23:22:22 2020.
