 Gaussian 16, Revision A.03,

 --------------------------------
 #t pop=none jul-cc-pvdz upbe1pbe
 --------------------------------
 ------------------------
 theory_abbreviation pbe0
 ------------------------
 Symbolic Z-matrix:
 Charge =  0 Multiplicity = 6

 SCF Done:  E(UPBE1PBE) =  -3033.11184744     A.U. after   21 cycles
 Normal termination of Gaussian 16 at Tue Feb 11 13:58:39 2020.

 ---------------------------------------------------------------------
 #t pop=none jul-cc-pvdz guess=read upbe1pbe empiricaldispersion=gd3bj
 ---------------------------------------------------------------------
 -----------------------------
 theory_abbreviation pbe0_d3bj
 -----------------------------
 Symbolic Z-matrix:
 Charge =  0 Multiplicity = 6

 SCF Done:  E(UPBE1PBE) =  -3033.14754477     A.U. after    1 cycles
 Normal termination of Gaussian 16 at Tue Feb 11 13:59:49 2020.

 -----------------------------------------
 #t pop=none jul-cc-pvdz guess=read ub3lyp
 -----------------------------------------
 -------------------------
 theory_abbreviation b3lyp
 -------------------------
 Symbolic Z-matrix:
 Charge =  0 Multiplicity = 6

 SCF Done:  E(UB3LYP) =  -3034.32523965     A.U. after   15 cycles
 Normal termination of Gaussian 16 at Tue Feb 11 14:15:35 2020.

 -------------------------------------------------------------------
 #t pop=none jul-cc-pvdz guess=read ub3lyp empiricaldispersion=gd3bj
 -------------------------------------------------------------------
 ------------------------------
 theory_abbreviation b3lyp_d3bj
 ------------------------------
 Symbolic Z-matrix:
 Charge =  0 Multiplicity = 6

 SCF Done:  E(UB3LYP) =  -3034.39185577     A.U. after    1 cycles
 Normal termination of Gaussian 16 at Tue Feb 11 14:16:45 2020.

 ----------------------------------------
 #t pop=none jul-cc-pvdz guess=read ub97d
 ----------------------------------------
 ------------------------
 theory_abbreviation b97d
 ------------------------
 Symbolic Z-matrix:
 Charge =  0 Multiplicity = 6

 SCF Done:  E(UB97D) =  -3034.57782136     A.U. after   16 cycles

 ----------------------------------------------------------------
 #t pop=none jul-cc-pvdz guess=read ub97d empiricaldispersion=gd3
 ----------------------------------------------------------------
 -------------------------
 theory_abbreviation b97d3
 -------------------------
 Symbolic Z-matrix:
 Charge =  0 Multiplicity = 6

 SCF Done:  E(UB97D) =  -3034.57779304     A.U. after    1 cycles
 SCF Done:  E(UBHandHLYP) =  -3033.96498982     A.U. after   17 cycles
 SCF Done:  E(UBHandH) =  -3026.31143021     A.U. after   16 cycles
 SCF Done:  E(ULC-wPBE) =  -3033.44955776     A.U. after   18 cycles
 SCF Done:  E(UB-P86) =  -3034.63066560     A.U. after   17 cycles
 SCF Done:  E(UmPW1LYP) =  -3034.04276903     A.U. after   15 cycles
 SCF Done:  E(UmPW1PBE) =  -3033.88641869     A.U. after   15 cycles
 SCF Done:  E(UmPW3PBE) =  -3033.65915987     A.U. after   15 cycles
 SCF Done:  E(UM11) =  -3033.80570160     A.U. after   19 cycles
 SCF Done:  E(UN12SX) =  -3033.25153197     A.U. after   17 cycles
 SCF Done:  E(UMN12SX) =  -3033.64668117     A.U. after   16 cycles
 SCF Done:  E(UB1B95) =  -3034.37843337     A.U. after   16 cycles
 Normal termination of Gaussian 16 at Tue Feb 11 23:03:25 2020.
 SCF Done:  E(UB3PW91) =  -3033.97471312     A.U. after   15 cycles
 Normal termination of Gaussian 16 at Tue Feb 11 23:18:28 2020.
 SCF Done:  E(UM06L) =  -3034.19095572     A.U. after   16 cycles
 Normal termination of Gaussian 16 at Tue Feb 11 23:35:51 2020.
 Gaussian 16:  ES64L-G16RevA.03 25-Dec-2016

                         Standard orientation:
 ---------------------------------------------------------------------
 Center     Atomic      Atomic             Coordinates (Angstroms)
 Number     Number       Type             X           Y           Z
 ---------------------------------------------------------------------
      1          8           0       -0.292535   -0.112036   -0.414899
      2          6           0       -1.217722   -1.039947   -0.171191
      3          6           0       -2.529967   -0.296215    0.811091
      4          6           0       -3.121590    0.647666   -0.065914
      5          6           0       -4.310863    0.317640   -0.890716
      6         26           0        1.539723    0.168028   -0.102058
      7         17           0        1.892365    2.142156   -1.004513
      8          6           0       -2.436171    1.929310   -0.287942
      9         17           0        2.531135   -1.537524   -1.080175
     10         17           0        1.867674    0.179700    2.085582
     11          1           0       -3.177623   -1.156638    0.989543
     12          1           0       -2.929935    2.578725   -1.012367
     13          1           0       -2.246053    2.469220    0.646090
     14          1           0       -1.419814    1.646412   -0.649099
     15          1           0       -5.136316    0.968026   -0.562223
     16          1           0       -4.139902    0.561978   -1.946604
     17          1           0       -4.628627   -0.721493   -0.791866
     18          6           0       -1.869730    0.245677    2.081990
     19          1           0       -2.539012    0.949021    2.588157
     20          1           0       -1.659284   -0.568294    2.776516
     21          1           0       -0.926481    0.749499    1.866049
     22          6           0       -0.737080   -2.167965    0.752168
     23          1           0       -1.548315   -2.844424    1.034817
     24          1           0        0.010112   -2.732284    0.182609
     25          1           0       -0.244086   -1.779925    1.643478
     26          6           0       -1.817238   -1.590022   -1.465503
     27          1           0       -1.040826   -2.185798   -1.956057
     28          1           0       -2.684303   -2.233191   -1.284941
     29          1           0       -2.089864   -0.783783   -2.150490
 ---------------------------------------------------------------------

 SCF Done:  E(UB97D3) =  -3034.61215273     A.U. after   16 cycles
 Normal termination of Gaussian 16 at Tue Feb 11 23:48:22 2020.
