 Gaussian 16, Revision A.03,

 --------------------------------
 #t pop=none jul-cc-pvdz upbe1pbe
 --------------------------------
 ------------------------
 theory_abbreviation pbe0
 ------------------------
 Symbolic Z-matrix:
 Charge =  0 Multiplicity = 6

 SCF Done:  E(UPBE1PBE) =  -3033.10994801     A.U. after   21 cycles
 Normal termination of Gaussian 16 at Tue Feb 11 13:58:46 2020.

 ---------------------------------------------------------------------
 #t pop=none jul-cc-pvdz guess=read upbe1pbe empiricaldispersion=gd3bj
 ---------------------------------------------------------------------
 -----------------------------
 theory_abbreviation pbe0_d3bj
 -----------------------------
 Symbolic Z-matrix:
 Charge =  0 Multiplicity = 6

 SCF Done:  E(UPBE1PBE) =  -3033.14635463     A.U. after    1 cycles
 Normal termination of Gaussian 16 at Tue Feb 11 13:59:58 2020.

 -----------------------------------------
 #t pop=none jul-cc-pvdz guess=read ub3lyp
 -----------------------------------------
 -------------------------
 theory_abbreviation b3lyp
 -------------------------
 Symbolic Z-matrix:
 Charge =  0 Multiplicity = 6

 SCF Done:  E(UB3LYP) =  -3034.32168287     A.U. after   15 cycles
 Normal termination of Gaussian 16 at Tue Feb 11 14:16:14 2020.

 -------------------------------------------------------------------
 #t pop=none jul-cc-pvdz guess=read ub3lyp empiricaldispersion=gd3bj
 -------------------------------------------------------------------
 ------------------------------
 theory_abbreviation b3lyp_d3bj
 ------------------------------
 Symbolic Z-matrix:
 Charge =  0 Multiplicity = 6

 SCF Done:  E(UB3LYP) =  -3034.38961657     A.U. after    1 cycles
 Normal termination of Gaussian 16 at Tue Feb 11 14:17:27 2020.

 ----------------------------------------
 #t pop=none jul-cc-pvdz guess=read ub97d
 ----------------------------------------
 ------------------------
 theory_abbreviation b97d
 ------------------------
 Symbolic Z-matrix:
 Charge =  0 Multiplicity = 6

 SCF Done:  E(UB97D) =  -3034.57332809     A.U. after   16 cycles

 ----------------------------------------------------------------
 #t pop=none jul-cc-pvdz guess=read ub97d empiricaldispersion=gd3
 ----------------------------------------------------------------
 -------------------------
 theory_abbreviation b97d3
 -------------------------
 Symbolic Z-matrix:
 Charge =  0 Multiplicity = 6

 SCF Done:  E(UB97D) =  -3034.57381727     A.U. after    1 cycles
 SCF Done:  E(UBHandHLYP) =  -3033.96385664     A.U. after   17 cycles
 SCF Done:  E(UBHandH) =  -3026.31347861     A.U. after   15 cycles
 SCF Done:  E(ULC-wPBE) =  -3033.45045032     A.U. after   17 cycles
 SCF Done:  E(UB-P86) =  -3034.62751731     A.U. after   17 cycles
 SCF Done:  E(UmPW1LYP) =  -3034.03962515     A.U. after   15 cycles
 SCF Done:  E(UmPW1PBE) =  -3033.88434817     A.U. after   15 cycles
 SCF Done:  E(UmPW3PBE) =  -3033.65663881     A.U. after   15 cycles
 SCF Done:  E(UM11) =  -3033.80498590     A.U. after   18 cycles
 SCF Done:  E(UN12SX) =  -3033.24965185     A.U. after   17 cycles
 SCF Done:  E(UMN12SX) =  -3033.64522281     A.U. after   16 cycles
 SCF Done:  E(UB1B95) =  -3034.37653132     A.U. after   16 cycles
 Normal termination of Gaussian 16 at Tue Feb 11 23:15:19 2020.
 SCF Done:  E(UB3PW91) =  -3033.97193113     A.U. after   15 cycles
 Normal termination of Gaussian 16 at Tue Feb 11 23:31:02 2020.
 SCF Done:  E(UM06L) =  -3034.18834360     A.U. after   16 cycles
 Normal termination of Gaussian 16 at Tue Feb 11 23:48:17 2020.
 Gaussian 16:  ES64L-G16RevA.03 25-Dec-2016

                         Standard orientation:
 ---------------------------------------------------------------------
 Center     Atomic      Atomic             Coordinates (Angstroms)
 Number     Number       Type             X           Y           Z
 ---------------------------------------------------------------------
      1          8           0       -0.352134   -0.107146   -0.444721
      2          6           0       -1.243755   -1.096779   -0.297921
      3          6           0       -2.552716   -0.440401    0.660351
      4          6           0       -2.826946    0.755799   -0.053439
      5          6           0       -3.820814    0.781278   -1.158073
      6         26           0        1.460042    0.171412   -0.075614
      7         17           0        1.724236    2.242863   -0.794811
      8          6           0       -2.065292    1.974411    0.195660
      9         17           0        2.569018   -1.394188   -1.152115
     10         17           0        1.703551    0.037146    2.124672
     11          1           0       -3.334725   -1.190835    0.524760
     12          1           0       -2.454262    2.854785   -0.318010
     13          1           0       -1.878553    2.171295    1.253962
     14          1           0       -1.063015    1.719840   -0.224871
     15          1           0       -4.645695    1.437466   -0.840622
     16          1           0       -3.396367    1.247678   -2.056145
     17          1           0       -4.231129   -0.199624   -1.398820
     18          6           0       -2.095864   -0.292366    2.112783
     19          1           0       -2.786622    0.356492    2.661543
     20          1           0       -2.091596   -1.264026    2.608811
     21          1           0       -1.089639    0.126813    2.183881
     22          6           0       -0.734777   -2.288069    0.525694
     23          1           0       -1.530791   -3.008789    0.735415
     24          1           0        0.033086   -2.779754   -0.081615
     25          1           0       -0.265486   -1.970152    1.456202
     26          6           0       -1.778624   -1.571367   -1.652577
     27          1           0       -0.965101   -2.112012   -2.146178
     28          1           0       -2.632484   -2.249401   -1.552457
     29          1           0       -2.044601   -0.733311   -2.298664
 ---------------------------------------------------------------------

 SCF Done:  E(UB97D3) =  -3034.60826573     A.U. after   16 cycles
 Normal termination of Gaussian 16 at Wed Feb 12 00:03:29 2020.
