 Gaussian 16, Revision A.03,

 --------------------------------
 #t pop=none jul-cc-pvdz upbe1pbe
 --------------------------------
 ------------------------
 theory_abbreviation pbe0
 ------------------------
 Symbolic Z-matrix:
 Charge =  0 Multiplicity = 6

 SCF Done:  E(UPBE1PBE) =  -3033.09217038     A.U. after   21 cycles
 Normal termination of Gaussian 16 at Tue Feb 11 23:38:46 2020.

 ---------------------------------------------------------------------
 #t pop=none jul-cc-pvdz guess=read upbe1pbe empiricaldispersion=gd3bj
 ---------------------------------------------------------------------
 -----------------------------
 theory_abbreviation pbe0_d3bj
 -----------------------------
 Symbolic Z-matrix:
 Charge =  0 Multiplicity = 6

 SCF Done:  E(UPBE1PBE) =  -3033.12935422     A.U. after    1 cycles
 Normal termination of Gaussian 16 at Tue Feb 11 23:39:52 2020.

 -----------------------------------------
 #t pop=none jul-cc-pvdz guess=read ub3lyp
 -----------------------------------------
 -------------------------
 theory_abbreviation b3lyp
 -------------------------
 Symbolic Z-matrix:
 Charge =  0 Multiplicity = 6

 SCF Done:  E(UB3LYP) =  -3034.30643759     A.U. after   14 cycles
 Normal termination of Gaussian 16 at Tue Feb 11 23:53:39 2020.

 -------------------------------------------------------------------
 #t pop=none jul-cc-pvdz guess=read ub3lyp empiricaldispersion=gd3bj
 -------------------------------------------------------------------
 ------------------------------
 theory_abbreviation b3lyp_d3bj
 ------------------------------
 Symbolic Z-matrix:
 Charge =  0 Multiplicity = 6

 SCF Done:  E(UB3LYP) =  -3034.37559175     A.U. after    1 cycles
 Normal termination of Gaussian 16 at Tue Feb 11 23:54:47 2020.

 ----------------------------------------
 #t pop=none jul-cc-pvdz guess=read ub97d
 ----------------------------------------
 ------------------------
 theory_abbreviation b97d
 ------------------------
 Symbolic Z-matrix:
 Charge =  0 Multiplicity = 6

 SCF Done:  E(UB97D) =  -3034.55904648     A.U. after   15 cycles

 ----------------------------------------------------------------
 #t pop=none jul-cc-pvdz guess=read ub97d empiricaldispersion=gd3
 ----------------------------------------------------------------
 -------------------------
 theory_abbreviation b97d3
 -------------------------
 Symbolic Z-matrix:
 Charge =  0 Multiplicity = 6

 SCF Done:  E(UB97D) =  -3034.56042605     A.U. after    1 cycles
 SCF Done:  E(UBHandHLYP) =  -3033.94592125     A.U. after   17 cycles
 SCF Done:  E(UBHandH) =  -3026.29088756     A.U. after   16 cycles
 SCF Done:  E(ULC-wPBE) =  -3033.43288272     A.U. after   19 cycles
 SCF Done:  E(UB-P86) =  -3034.61484381     A.U. after   16 cycles
 SCF Done:  E(UmPW1LYP) =  -3034.02425903     A.U. after   15 cycles
 SCF Done:  E(UmPW1PBE) =  -3033.86674429     A.U. after   15 cycles
 SCF Done:  E(UmPW3PBE) =  -3033.63957278     A.U. after   15 cycles
 SCF Done:  E(UM11) =  -3033.78585705     A.U. after   17 cycles
 SCF Done:  E(UN12SX) =  -3033.23249444     A.U. after   17 cycles
 SCF Done:  E(UMN12SX) =  -3033.62795466     A.U. after   15 cycles
 SCF Done:  E(UB1B95) =  -3034.35869636     A.U. after   14 cycles
 Normal termination of Gaussian 16 at Wed Feb 12 08:06:37 2020.
 SCF Done:  E(UB3PW91) =  -3033.95501726     A.U. after   14 cycles
 Normal termination of Gaussian 16 at Wed Feb 12 08:20:59 2020.
 SCF Done:  E(UM06L) =  -3034.17016603     A.U. after   18 cycles
 Normal termination of Gaussian 16 at Wed Feb 12 08:40:51 2020.
 Gaussian 16:  ES64L-G16RevA.03 25-Dec-2016

                         Standard orientation:
 ---------------------------------------------------------------------
 Center     Atomic      Atomic             Coordinates (Angstroms)
 Number     Number       Type             X           Y           Z
 ---------------------------------------------------------------------
      1          8           0       -0.421440   -0.136189   -0.459653
      2          6           0       -1.325941   -1.220194   -0.379086
      3          6           0       -2.937602   -0.053590   -0.175170
      4          6           0       -2.003111    1.076903   -0.296080
      5          6           0       -1.858286    1.754222   -1.614716
      6         26           0        1.384916    0.060368    0.054849
      7         17           0        1.877186    2.014327   -0.847754
      8          6           0       -1.578354    1.847717    0.905146
      9         17           0        2.413268   -1.712016   -0.737601
     10         17           0        1.382255    0.142504    2.264855
     11          1           0       -3.516317   -0.219529   -1.083680
     12          1           0       -2.418899    2.508203    1.170283
     13          1           0       -1.371734    1.209137    1.764305
     14          1           0       -0.704015    2.466476    0.695060
     15          1           0       -2.624737    2.544945   -1.648427
     16          1           0       -0.875795    2.220027   -1.718036
     17          1           0       -2.043593    1.073412   -2.447514
     18          6           0       -3.710152   -0.286940    1.101602
     19          1           0       -4.501350    0.462889    1.235498
     20          1           0       -4.194724   -1.267701    1.069823
     21          1           0       -3.074696   -0.259515    1.990248
     22          6           0       -1.166652   -2.067233    0.849044
     23          1           0       -1.983192   -2.788962    0.942062
     24          1           0       -0.224758   -2.626356    0.754905
     25          1           0       -1.095848   -1.463275    1.755080
     26          6           0       -1.439073   -1.959556   -1.682440
     27          1           0       -0.472976   -2.446810   -1.874471
     28          1           0       -2.219383   -2.725346   -1.642149
     29          1           0       -1.635300   -1.277491   -2.513131
 ---------------------------------------------------------------------

 SCF Done:  E(UB97D3) =  -3034.59573018     A.U. after   16 cycles
 Normal termination of Gaussian 16 at Wed Feb 12 08:53:58 2020.
