 Gaussian 16, Revision A.03,

 --------------------------------
 #t pop=none jul-cc-pvdz upbe1pbe
 --------------------------------
 ------------------------
 theory_abbreviation pbe0
 ------------------------
 Symbolic Z-matrix:
 Charge =  0 Multiplicity = 6

 SCF Done:  E(UPBE1PBE) =  -3033.10943109     A.U. after   21 cycles
 Normal termination of Gaussian 16 at Tue Feb 11 23:38:52 2020.

 ---------------------------------------------------------------------
 #t pop=none jul-cc-pvdz guess=read upbe1pbe empiricaldispersion=gd3bj
 ---------------------------------------------------------------------
 -----------------------------
 theory_abbreviation pbe0_d3bj
 -----------------------------
 Symbolic Z-matrix:
 Charge =  0 Multiplicity = 6

 SCF Done:  E(UPBE1PBE) =  -3033.14543229     A.U. after    1 cycles
 Normal termination of Gaussian 16 at Tue Feb 11 23:40:33 2020.

 -----------------------------------------
 #t pop=none jul-cc-pvdz guess=read ub3lyp
 -----------------------------------------
 -------------------------
 theory_abbreviation b3lyp
 -------------------------
 Symbolic Z-matrix:
 Charge =  0 Multiplicity = 6

 SCF Done:  E(UB3LYP) =  -3034.32139824     A.U. after   15 cycles
 Normal termination of Gaussian 16 at Tue Feb 11 23:55:17 2020.

 -------------------------------------------------------------------
 #t pop=none jul-cc-pvdz guess=read ub3lyp empiricaldispersion=gd3bj
 -------------------------------------------------------------------
 ------------------------------
 theory_abbreviation b3lyp_d3bj
 ------------------------------
 Symbolic Z-matrix:
 Charge =  0 Multiplicity = 6

 SCF Done:  E(UB3LYP) =  -3034.38860696     A.U. after    1 cycles
 Normal termination of Gaussian 16 at Tue Feb 11 23:56:25 2020.

 ----------------------------------------
 #t pop=none jul-cc-pvdz guess=read ub97d
 ----------------------------------------
 ------------------------
 theory_abbreviation b97d
 ------------------------
 Symbolic Z-matrix:
 Charge =  0 Multiplicity = 6

 SCF Done:  E(UB97D) =  -3034.57358410     A.U. after   16 cycles

 ----------------------------------------------------------------
 #t pop=none jul-cc-pvdz guess=read ub97d empiricaldispersion=gd3
 ----------------------------------------------------------------
 -------------------------
 theory_abbreviation b97d3
 -------------------------
 Symbolic Z-matrix:
 Charge =  0 Multiplicity = 6

 SCF Done:  E(UB97D) =  -3034.57365106     A.U. after    3 cycles
 SCF Done:  E(UBHandHLYP) =  -3033.96290819     A.U. after   17 cycles
 SCF Done:  E(UBHandH) =  -3026.31173236     A.U. after   13 cycles
 SCF Done:  E(ULC-wPBE) =  -3033.44962168     A.U. after   17 cycles
 SCF Done:  E(UB-P86) =  -3034.62801956     A.U. after   17 cycles
 SCF Done:  E(UmPW1LYP) =  -3034.03906972     A.U. after   15 cycles
 SCF Done:  E(UmPW1PBE) =  -3033.88393052     A.U. after   15 cycles
 SCF Done:  E(UmPW3PBE) =  -3033.65636758     A.U. after   14 cycles
 SCF Done:  E(UM11) =  -3033.80267171     A.U. after   18 cycles
 SCF Done:  E(UN12SX) =  -3033.24892110     A.U. after   16 cycles
 SCF Done:  E(UMN12SX) =  -3033.64390549     A.U. after   16 cycles
 SCF Done:  E(UB1B95) =  -3034.37522711     A.U. after   16 cycles
 Normal termination of Gaussian 16 at Wed Feb 12 08:17:30 2020.
 SCF Done:  E(UB3PW91) =  -3033.97176131     A.U. after   15 cycles
 Normal termination of Gaussian 16 at Wed Feb 12 08:32:45 2020.
 SCF Done:  E(UM06L) =  -3034.18752271     A.U. after   17 cycles
 Normal termination of Gaussian 16 at Wed Feb 12 08:51:04 2020.
 Gaussian 16:  ES64L-G16RevA.03 25-Dec-2016

                         Standard orientation:
 ---------------------------------------------------------------------
 Center     Atomic      Atomic             Coordinates (Angstroms)
 Number     Number       Type             X           Y           Z
 ---------------------------------------------------------------------
      1          8           0       -0.295877   -0.097001   -0.416427
      2          6           0       -1.263931   -1.031691   -0.204145
      3          6           0       -2.469943   -0.394084    0.724021
      4          6           0       -3.066911    0.674947   -0.048409
      5          6           0       -4.303069    0.467719   -0.835727
      6         26           0        1.521490    0.170233   -0.091474
      7         17           0        1.830054    2.215475   -0.858728
      8          6           0       -2.314958    1.910984   -0.189019
      9         17           0        2.567064   -1.440579   -1.170259
     10         17           0        1.843072    0.057752    2.099533
     11          1           0       -3.181254   -1.217291    0.838041
     12          1           0       -2.767009    2.659898   -0.839533
     13          1           0       -2.005293    2.342583    0.768505
     14          1           0       -1.331963    1.538262   -0.602351
     15          1           0       -5.105481    1.030752   -0.330618
     16          1           0       -4.217417    0.902578   -1.838454
     17          1           0       -4.605930   -0.578866   -0.893353
     18          6           0       -1.895966    0.043953    2.085692
     19          1           0       -2.597884    0.700937    2.608560
     20          1           0       -1.729663   -0.831275    2.715030
     21          1           0       -0.939855    0.556601    1.970835
     22          6           0       -0.733206   -2.234600    0.601845
     23          1           0       -1.532645   -2.939201    0.851525
     24          1           0        0.003388   -2.742737   -0.028166
     25          1           0       -0.224869   -1.914667    1.512047
     26          6           0       -1.822524   -1.507840   -1.554572
     27          1           0       -1.023363   -2.035265   -2.082386
     28          1           0       -2.670938   -2.191069   -1.435893
     29          1           0       -2.121722   -0.662634   -2.181437
 ---------------------------------------------------------------------

 SCF Done:  E(UB97D3) =  -3034.60849109     A.U. after   16 cycles
 Normal termination of Gaussian 16 at Wed Feb 12 09:03:57 2020.
