 Gaussian 16, Revision A.03,

 --------------------------------
 #t pop=none jul-cc-pvdz upbe1pbe
 --------------------------------
 ------------------------
 theory_abbreviation pbe0
 ------------------------
 Symbolic Z-matrix:
 Charge =  0 Multiplicity = 6

 SCF Done:  E(UPBE1PBE) =  -3033.11189871     A.U. after   21 cycles
 Normal termination of Gaussian 16 at Tue Feb 11 13:58:40 2020.

 ---------------------------------------------------------------------
 #t pop=none jul-cc-pvdz guess=read upbe1pbe empiricaldispersion=gd3bj
 ---------------------------------------------------------------------
 -----------------------------
 theory_abbreviation pbe0_d3bj
 -----------------------------
 Symbolic Z-matrix:
 Charge =  0 Multiplicity = 6

 SCF Done:  E(UPBE1PBE) =  -3033.14814842     A.U. after    1 cycles
 Normal termination of Gaussian 16 at Tue Feb 11 13:59:49 2020.

 -----------------------------------------
 #t pop=none jul-cc-pvdz guess=read ub3lyp
 -----------------------------------------
 -------------------------
 theory_abbreviation b3lyp
 -------------------------
 Symbolic Z-matrix:
 Charge =  0 Multiplicity = 6

 SCF Done:  E(UB3LYP) =  -3034.32512108     A.U. after   13 cycles
 Normal termination of Gaussian 16 at Tue Feb 11 14:13:28 2020.

 -------------------------------------------------------------------
 #t pop=none jul-cc-pvdz guess=read ub3lyp empiricaldispersion=gd3bj
 -------------------------------------------------------------------
 ------------------------------
 theory_abbreviation b3lyp_d3bj
 ------------------------------
 Symbolic Z-matrix:
 Charge =  0 Multiplicity = 6

 SCF Done:  E(UB3LYP) =  -3034.39281658     A.U. after    1 cycles
 Normal termination of Gaussian 16 at Tue Feb 11 14:14:37 2020.

 ----------------------------------------
 #t pop=none jul-cc-pvdz guess=read ub97d
 ----------------------------------------
 ------------------------
 theory_abbreviation b97d
 ------------------------
 Symbolic Z-matrix:
 Charge =  0 Multiplicity = 6

 SCF Done:  E(UB97D) =  -3034.57894909     A.U. after   17 cycles

 ----------------------------------------------------------------
 #t pop=none jul-cc-pvdz guess=read ub97d empiricaldispersion=gd3
 ----------------------------------------------------------------
 -------------------------
 theory_abbreviation b97d3
 -------------------------
 Symbolic Z-matrix:
 Charge =  0 Multiplicity = 6

 SCF Done:  E(UB97D) =  -3034.57917345     A.U. after    1 cycles
 SCF Done:  E(UBHandHLYP) =  -3033.96485696     A.U. after   17 cycles
 SCF Done:  E(UBHandH) =  -3026.31190978     A.U. after   16 cycles
 SCF Done:  E(ULC-wPBE) =  -3033.44986003     A.U. after   19 cycles
 SCF Done:  E(UB-P86) =  -3034.63132817     A.U. after   18 cycles
 SCF Done:  E(UmPW1LYP) =  -3034.04274555     A.U. after   15 cycles
 SCF Done:  E(UmPW1PBE) =  -3033.88637222     A.U. after   15 cycles
 SCF Done:  E(UmPW3PBE) =  -3033.65910689     A.U. after   15 cycles
 SCF Done:  E(UM11) =  -3033.80772540     A.U. after   19 cycles
 SCF Done:  E(UN12SX) =  -3033.25189434     A.U. after   17 cycles
 SCF Done:  E(UMN12SX) =  -3033.64835477     A.U. after   17 cycles
 SCF Done:  E(UB1B95) =  -3034.37990074     A.U. after   17 cycles
 Normal termination of Gaussian 16 at Tue Feb 11 23:03:29 2020.
 SCF Done:  E(UB3PW91) =  -3033.97458753     A.U. after   15 cycles
 Normal termination of Gaussian 16 at Tue Feb 11 23:18:42 2020.
 SCF Done:  E(UM06L) =  -3034.19254666     A.U. after   16 cycles
 Normal termination of Gaussian 16 at Tue Feb 11 23:36:11 2020.
 Gaussian 16:  ES64L-G16RevA.03 25-Dec-2016

                         Standard orientation:
 ---------------------------------------------------------------------
 Center     Atomic      Atomic             Coordinates (Angstroms)
 Number     Number       Type             X           Y           Z
 ---------------------------------------------------------------------
      1          8           0       -0.251680   -0.389034   -0.571787
      2          6           0       -1.263022   -1.169373   -0.239973
      3          6           0       -2.365008   -0.200369    0.886598
      4          6           0       -3.004860    0.666659   -0.019020
      5          6           0       -4.335586    0.346778   -0.600388
      6         26           0        1.501749    0.129834   -0.105537
      7         17           0        2.779474   -0.581571   -1.736743
      8          6           0       -2.299790    1.869468   -0.504120
      9         17           0        2.064131   -0.743914    1.841019
     10         17           0        1.345858    2.336792    0.024579
     11          1           0       -3.023794   -0.984286    1.263240
     12          1           0       -2.856323    2.420306   -1.264432
     13          1           0       -2.020271    2.540798    0.316058
     14          1           0       -1.327867    1.529571   -0.910160
     15          1           0       -5.042210    1.116703   -0.254441
     16          1           0       -4.322015    0.421778   -1.694567
     17          1           0       -4.715347   -0.630377   -0.296626
     18          6           0       -1.461549    0.408492    1.953325
     19          1           0       -2.072191    0.998670    2.645776
     20          1           0       -0.950229   -0.359177    2.533307
     21          1           0       -0.704069    1.064934    1.525195
     22          6           0       -0.910330   -2.355269    0.666191
     23          1           0       -1.799874   -2.915138    0.965829
     24          1           0       -0.270415   -3.014929    0.068602
     25          1           0       -0.337528   -2.056642    1.542180
     26          6           0       -2.051411   -1.623050   -1.468198
     27          1           0       -1.425539   -2.341285   -2.008122
     28          1           0       -2.990604   -2.117919   -1.204767
     29          1           0       -2.245300   -0.788672   -2.145818
 ---------------------------------------------------------------------

 SCF Done:  E(UB97D3) =  -3034.61291116     A.U. after   16 cycles
 Normal termination of Gaussian 16 at Tue Feb 11 23:48:42 2020.
