 Gaussian 16, Revision A.03,

 --------------------------------
 #t pop=none jul-cc-pvdz upbe1pbe
 --------------------------------
 ------------------------
 theory_abbreviation pbe0
 ------------------------
 Symbolic Z-matrix:
 Charge =  0 Multiplicity = 6

 SCF Done:  E(UPBE1PBE) =  -3033.11497955     A.U. after   20 cycles
 Normal termination of Gaussian 16 at Tue Feb 11 14:47:39 2020.

 ---------------------------------------------------------------------
 #t pop=none jul-cc-pvdz guess=read upbe1pbe empiricaldispersion=gd3bj
 ---------------------------------------------------------------------
 -----------------------------
 theory_abbreviation pbe0_d3bj
 -----------------------------
 Symbolic Z-matrix:
 Charge =  0 Multiplicity = 6

 SCF Done:  E(UPBE1PBE) =  -3033.15273998     A.U. after    1 cycles
 Normal termination of Gaussian 16 at Tue Feb 11 14:48:51 2020.

 -----------------------------------------
 #t pop=none jul-cc-pvdz guess=read ub3lyp
 -----------------------------------------
 -------------------------
 theory_abbreviation b3lyp
 -------------------------
 Symbolic Z-matrix:
 Charge =  0 Multiplicity = 6

 SCF Done:  E(UB3LYP) =  -3034.32950961     A.U. after   13 cycles
 Normal termination of Gaussian 16 at Tue Feb 11 15:02:48 2020.

 -------------------------------------------------------------------
 #t pop=none jul-cc-pvdz guess=read ub3lyp empiricaldispersion=gd3bj
 -------------------------------------------------------------------
 ------------------------------
 theory_abbreviation b3lyp_d3bj
 ------------------------------
 Symbolic Z-matrix:
 Charge =  0 Multiplicity = 6

 SCF Done:  E(UB3LYP) =  -3034.39991065     A.U. after    1 cycles
 Normal termination of Gaussian 16 at Tue Feb 11 15:03:59 2020.

 ----------------------------------------
 #t pop=none jul-cc-pvdz guess=read ub97d
 ----------------------------------------
 ------------------------
 theory_abbreviation b97d
 ------------------------
 Symbolic Z-matrix:
 Charge =  0 Multiplicity = 6

 SCF Done:  E(UB97D) =  -3034.58356420     A.U. after   15 cycles

 ----------------------------------------------------------------
 #t pop=none jul-cc-pvdz guess=read ub97d empiricaldispersion=gd3
 ----------------------------------------------------------------
 -------------------------
 theory_abbreviation b97d3
 -------------------------
 Symbolic Z-matrix:
 Charge =  0 Multiplicity = 6

 SCF Done:  E(UB97D) =  -3034.58451614     A.U. after    1 cycles
 SCF Done:  E(UBHandHLYP) =  -3033.97066895     A.U. after   18 cycles
 SCF Done:  E(UBHandH) =  -3026.31601693     A.U. after   16 cycles
 SCF Done:  E(ULC-wPBE) =  -3033.45504494     A.U. after   19 cycles
 SCF Done:  E(UB-P86) =  -3034.63571565     A.U. after   17 cycles
 SCF Done:  E(UmPW1LYP) =  -3034.04763272     A.U. after   15 cycles
 SCF Done:  E(UmPW1PBE) =  -3033.88934657     A.U. after   15 cycles
 SCF Done:  E(UmPW3PBE) =  -3033.66205530     A.U. after   13 cycles
 SCF Done:  E(UM11) =  -3033.81315454     A.U. after   19 cycles
 SCF Done:  E(UN12SX) =  -3033.25441047     A.U. after   17 cycles
 SCF Done:  E(UMN12SX) =  -3033.65399409     A.U. after   16 cycles
 SCF Done:  E(UB1B95) =  -3034.38425777     A.U. after   16 cycles
 Normal termination of Gaussian 16 at Tue Feb 11 23:55:24 2020.
 SCF Done:  E(UB3PW91) =  -3033.97758501     A.U. after   15 cycles
 Normal termination of Gaussian 16 at Wed Feb 12 00:11:02 2020.
 SCF Done:  E(UM06L) =  -3034.19757529     A.U. after   17 cycles
 Normal termination of Gaussian 16 at Wed Feb 12 00:29:34 2020.
 Gaussian 16:  ES64L-G16RevA.03 25-Dec-2016

                         Standard orientation:
 ---------------------------------------------------------------------
 Center     Atomic      Atomic             Coordinates (Angstroms)
 Number     Number       Type             X           Y           Z
 ---------------------------------------------------------------------
      1          8           0       -0.307408   -0.182403   -0.754108
      2          6           0       -1.197811   -1.104782   -0.612081
      3          6           0       -2.865793   -0.223851    0.419566
      4          6           0       -2.485610    0.978735   -0.114029
      5          6           0       -2.926307    1.423818   -1.471588
      6         26           0        1.425417    0.116107   -0.000704
      7         17           0        2.022627    2.065592   -0.799321
      8          6           0       -1.598753    1.942163    0.599060
      9         17           0        2.606071   -1.601866   -0.684971
     10         17           0        1.185323    0.126607    2.200761
     11          1           0       -3.628437   -0.776774   -0.125399
     12          1           0       -2.207971    2.802818    0.911540
     13          1           0       -1.116637    1.528963    1.483238
     14          1           0       -0.828182    2.330107   -0.076277
     15          1           0       -3.352041    2.432389   -1.398037
     16          1           0       -2.055363    1.505331   -2.135216
     17          1           0       -3.673143    0.765522   -1.919725
     18          6           0       -2.777003   -0.539529    1.896426
     19          1           0       -3.560891    0.010355    2.432382
     20          1           0       -2.942619   -1.602322    2.085898
     21          1           0       -1.817560   -0.261511    2.338109
     22          6           0       -0.920777   -2.215365    0.373905
     23          1           0       -1.779876   -2.873289    0.514803
     24          1           0       -0.105613   -2.799462   -0.076243
     25          1           0       -0.560615   -1.842461    1.331770
     26          6           0       -1.866950   -1.553912   -1.894294
     27          1           0       -1.124332   -2.181013   -2.405248
     28          1           0       -2.758919   -2.157844   -1.716658
     29          1           0       -2.093709   -0.719715   -2.555526
 ---------------------------------------------------------------------

 SCF Done:  E(UB97D3) =  -3034.61993108     A.U. after   15 cycles
 Normal termination of Gaussian 16 at Wed Feb 12 00:41:29 2020.
