 Gaussian 16, Revision A.03,
 Gaussian 16:  ES64L-G16RevA.03 25-Dec-2016

 ----------------------------------------------------------------------
 #p opt=(maxstep=5) freq=noraman b3lyp jul-cc-pvdz pop=none empiricaldi
 spersion=gd3bj scrf=(pcm,solvent=water)
 ----------------------------------------------------------------------

 -----
 title
 -----
 Symbolic Z-matrix:
 Charge =  0 Multiplicity = 6

 SCF Done:  E(UB3LYP) =  -3531.56066218     A.U. after   23 cycles
 SCF Done:  E(UB3LYP) =  -3531.56133501     A.U. after   16 cycles
 SCF Done:  E(UB3LYP) =  -3531.56117686     A.U. after   17 cycles
 SCF Done:  E(UB3LYP) =  -3531.56141051     A.U. after   16 cycles
 SCF Done:  E(UB3LYP) =  -3531.56197671     A.U. after   20 cycles
 SCF Done:  E(UB3LYP) =  -3531.56221012     A.U. after   16 cycles
 SCF Done:  E(UB3LYP) =  -3531.56223797     A.U. after   17 cycles
 SCF Done:  E(UB3LYP) =  -3531.56246519     A.U. after   16 cycles
 SCF Done:  E(UB3LYP) =  -3531.56254174     A.U. after   14 cycles
 SCF Done:  E(UB3LYP) =  -3531.56255548     A.U. after   13 cycles
 SCF Done:  E(UB3LYP) =  -3531.56285205     A.U. after   13 cycles
 SCF Done:  E(UB3LYP) =  -3531.56285214     A.U. after   11 cycles
 SCF Done:  E(UB3LYP) =  -3531.56284495     A.U. after   13 cycles
 SCF Done:  E(UB3LYP) =  -3531.56284565     A.U. after   10 cycles
 SCF Done:  E(UB3LYP) =  -3531.56285180     A.U. after   13 cycles
 SCF Done:  E(UB3LYP) =  -3531.56284732     A.U. after   14 cycles
 SCF Done:  E(UB3LYP) =  -3531.56285200     A.U. after   13 cycles
 SCF Done:  E(UB3LYP) =  -3531.56285225     A.U. after   11 cycles
 SCF Done:  E(UB3LYP) =  -3531.56284704     A.U. after   14 cycles
 Optimization completed.
    -- Stationary point found.
 Normal termination of Gaussian 16 at Wed Jun 30 09:23:27 2021.

 ----------------------------------------------------------------------
 #P Geom=AllCheck Guess=TCheck SCRF=Check GenChk UB3LYP/Jul-CC-pVDZ Fre
 q
 ----------------------------------------------------------------------

 Structure from the checkpoint file:  "/scratch/kwaneu.3005245.bmbhpcps002/Gau-26350.chk"
 -----
 title
 -----
 Charge =  0 Multiplicity = 6

                         Standard orientation:
 ---------------------------------------------------------------------
 Center     Atomic      Atomic             Coordinates (Angstroms)
 Number     Number       Type             X           Y           Z
 ---------------------------------------------------------------------
      1          6           0       -1.735334   -1.526446    1.910765
      2          6           0       -1.224246   -0.557640    1.035440
      3          6           0       -1.548926    0.787443    1.264990
      4          6           0       -2.352545    1.156466    2.344313
      5          6           0       -2.853624    0.184030    3.215316
      6          6           0       -2.541475   -1.159242    2.992783
      7          6           0       -0.414774   -0.918131   -0.218143
      8          6           0       -1.404583   -1.246493   -1.401378
      9          6           0       -1.803283   -2.701505   -1.185027
     10          6           0       -0.530862   -3.418938   -0.696355
     11          6           0        0.347423   -2.275818    0.003705
     12          6           0        1.624964   -2.493455   -0.662263
     13          6           0        1.966618   -1.967032   -1.981508
     14          8           0        0.448228    0.112867   -0.580388
     15         26           0        1.790841    1.089519    0.196666
     16         17           0        3.486549    1.215606   -1.299679
     17          6           0        2.626988   -3.294694    0.050744
     18         17           0        1.185750    3.194671    0.751383
     19         17           0        2.506549   -0.082517    2.002019
     20          1           0       -1.166945    1.551470    0.594212
     21          1           0       -2.587401    2.209478    2.503541
     22          1           0       -3.481359    0.470332    4.059861
     23          1           0       -2.923744   -1.930325    3.662316
     24          1           0       -1.521045   -2.584208    1.771378
     25          1           0       -0.833717   -1.126572   -2.329620
     26          6           0       -2.574117   -0.288600   -1.465217
     27          1           0       -2.193625   -3.161420   -2.099316
     28          1           0       -2.585760   -2.758997   -0.420421
     29          1           0       -0.004527   -3.877982   -1.543722
     30          1           0       -0.713404   -4.216408    0.029786
     31          1           0        0.453510   -2.486529    1.069009
     32          1           0        2.168413   -4.066568    0.681658
     33          1           0        3.077877   -2.566651    0.757730
     34          1           0        3.410735   -3.699338   -0.594631
     35          1           0        2.498718   -2.719714   -2.577288
     36          1           0        2.711992   -1.166957   -1.780034
     37          1           0        1.140832   -1.513328   -2.526775
     38          8           0       -2.178863    0.923161   -1.875531
     39          8           0       -3.721296   -0.566071   -1.166601
     40          6           0       -3.167097    1.990329   -1.833591
     41          6           0       -2.431754    3.290019   -2.079803
     42          1           0       -3.651551    1.967855   -0.849463
     43          1           0       -3.925755    1.788000   -2.601018
     44          1           0       -3.148776    4.122156   -2.056868
     45          1           0       -1.938642    3.283234   -3.061330
     46          1           0       -1.672883    3.461648   -1.304065
 ---------------------------------------------------------------------

 SCF Done:  E(UB3LYP) =  -3531.56284704     A.U. after    2 cycles

 Isotropic polarizability for W=    0.000000      420.44 Bohr**3.
 End of Minotr F.D. properties file   721 does not exist.

                      1                      2                      3
                      A                      A                      A
 Frequencies --     31.0500                36.5348                46.0034
 Red. masses --      4.2467                 5.2944                 5.5328
 Frc consts  --      0.0024                 0.0042                 0.0069
 IR Inten    --      2.6671                 2.6699                 0.5764

                      4                      5                      6
                      A                      A                      A
 Frequencies --     56.6330                61.2071                67.9439
 Red. masses --      7.7416                 3.9045                 5.0497
 Frc consts  --      0.0146                 0.0086                 0.0137
 IR Inten    --      0.8940                 3.4599                 1.2800

                      7                      8                      9
                      A                      A                      A
 Frequencies --     78.6900                86.6642                89.7439
 Red. masses --      5.3991                 5.1243                 3.5955
 Frc consts  --      0.0197                 0.0227                 0.0171
 IR Inten    --      2.7518                 5.7968                 5.8417

                     10                     11                     12
                      A                      A                      A
 Frequencies --     92.6048                99.2421               107.3724
 Red. masses --     12.8120                 4.0267                 5.4561
 Frc consts  --      0.0647                 0.0234                 0.0371
 IR Inten    --     11.8388                 2.5320                 5.3387

                     13                     14                     15
                      A                      A                      A
 Frequencies --    114.1525               124.4259               127.9114
 Red. masses --      5.1062                 4.2318                10.1848
 Frc consts  --      0.0392                 0.0386                 0.0982
 IR Inten    --      5.5770                 7.5279                 8.9321

                     16                     17                     18
                      A                      A                      A
 Frequencies --    132.7336               150.1977               169.0502
 Red. masses --      6.5651                 4.4614                 1.8340
 Frc consts  --      0.0681                 0.0593                 0.0309
 IR Inten    --      8.6313                 3.7518                 3.0059

                     19                     20                     21
                      A                      A                      A
 Frequencies --    181.5762               188.2241               211.7544
 Red. masses --      1.4530                 2.9087                 2.3324
 Frc consts  --      0.0282                 0.0607                 0.0616
 IR Inten    --      1.9717                 3.1531                 1.9051

                     22                     23                     24
                      A                      A                      A
 Frequencies --    234.0813               238.5839               248.7399
 Red. masses --      2.1082                 2.0753                 3.6307
 Frc consts  --      0.0681                 0.0696                 0.1324
 IR Inten    --     34.2193                17.8577                24.9014

                     25                     26                     27
                      A                      A                      A
 Frequencies --    261.7624               278.5911               289.8870
 Red. masses --      1.6094                 3.4115                 5.0801
 Frc consts  --      0.0650                 0.1560                 0.2515
 IR Inten    --      1.7426                 8.1773                 3.8208

                     28                     29                     30
                      A                      A                      A
 Frequencies --    301.4421               319.6262               326.2952
 Red. masses --      6.9588                 9.6171                 4.5051
 Frc consts  --      0.3726                 0.5789                 0.2826
 IR Inten    --     16.3202                45.9689                67.4092

                     31                     32                     33
                      A                      A                      A
 Frequencies --    345.9482               347.8863               369.1725
 Red. masses --     27.8080                21.0757                 4.5695
 Frc consts  --      1.9608                 1.5028                 0.3669
 IR Inten    --    161.3930               154.2665                45.3785

                     34                     35                     36
                      A                      A                      A
 Frequencies --    402.9913               421.6703               425.8461
 Red. masses --      6.8754                 3.1042                 3.6670
 Frc consts  --      0.6579                 0.3252                 0.3918
 IR Inten    --     31.1594                 3.8219                 6.5980

                     37                     38                     39
                      A                      A                      A
 Frequencies --    447.2131               479.0995               510.9733
 Red. masses --      3.3457                 2.8995                 2.2353
 Frc consts  --      0.3943                 0.3921                 0.3439
 IR Inten    --      5.6594                 7.6595                 5.3875

                     40                     41                     42
                      A                      A                      A
 Frequencies --    558.1322               583.0542               629.9424
 Red. masses --      3.5740                 2.5868                 6.3064
 Frc consts  --      0.6560                 0.5181                 1.4745
 IR Inten    --     62.8013                 5.2554                 0.9729

                     43                     44                     45
                      A                      A                      A
 Frequencies --    649.5658               672.2105               709.8770
 Red. masses --      5.6721                 3.5962                 1.9422
 Frc consts  --      1.4101                 0.9574                 0.5767
 IR Inten    --     32.1012                53.1248               114.5396

                     46                     47                     48
                      A                      A                      A
 Frequencies --    714.6846               757.0847               778.8247
 Red. masses --      3.0620                 3.1992                 1.5856
 Frc consts  --      0.9215                 1.0804                 0.5667
 IR Inten    --     19.1665                41.4602                33.8686

                     49                     50                     51
                      A                      A                      A
 Frequencies --    780.1423               793.8596               810.1705
 Red. masses --      2.9083                 2.1572                 1.6615
 Frc consts  --      1.0429                 0.8010                 0.6425
 IR Inten    --     29.7188                14.1481                53.0012

                     52                     53                     54
                      A                      A                      A
 Frequencies --    813.5761               838.6841               849.5979
 Red. masses --      1.8677                 3.1697                 1.2580
 Frc consts  --      0.7284                 1.3136                 0.5350
 IR Inten    --     61.3963                20.4944                 2.5415

                     55                     56                     57
                      A                      A                      A
 Frequencies --    867.0683               878.6268               921.9047
 Red. masses --      2.7685                 2.5417                 1.7723
 Frc consts  --      1.2263                 1.1561                 0.8875
 IR Inten    --      2.8094                28.6704                48.1813

                     58                     59                     60
                      A                      A                      A
 Frequencies --    935.7262               961.7270               987.6194
 Red. masses --      1.7451                 2.6990                 1.8872
 Frc consts  --      0.9002                 1.4708                 1.0846
 IR Inten    --      5.4863                11.2863                 6.0377

                     61                     62                     63
                      A                      A                      A
 Frequencies --    989.3184               997.8036              1004.3188
 Red. masses --      1.7808                 2.3497                 1.3149
 Frc consts  --      1.0269                 1.3783                 0.7814
 IR Inten    --      4.7365                21.8573                 3.2608

                     64                     65                     66
                      A                      A                      A
 Frequencies --   1008.0486              1010.6072              1023.7873
 Red. masses --      1.9180                 2.7724                 2.1349
 Frc consts  --      1.1483                 1.6683                 1.3184
 IR Inten    --     10.3379                 2.4097                22.5043

                     67                     68                     69
                      A                      A                      A
 Frequencies --   1033.8971              1053.5647              1056.1847
 Red. masses --      2.5352                 2.3429                 2.6659
 Frc consts  --      1.5967                 1.5322                 1.7522
 IR Inten    --    102.1509                32.2638                11.5341

                     70                     71                     72
                      A                      A                      A
 Frequencies --   1087.0204              1092.9720              1099.3877
 Red. masses --      2.4159                 1.8452                 2.1743
 Frc consts  --      1.6819                 1.2987                 1.5484
 IR Inten    --     55.7929                42.0033               218.7960

                     73                     74                     75
                      A                      A                      A
 Frequencies --   1129.7936              1134.0683              1157.4357
 Red. masses --      2.2596                 2.6744                 2.0962
 Frc consts  --      1.6994                 2.0266                 1.6545
 IR Inten    --    121.9704               136.8305                49.4117

                     76                     77                     78
                      A                      A                      A
 Frequencies --   1167.7999              1168.8278              1188.2356
 Red. masses --      1.5558                 1.0819                 1.9643
 Frc consts  --      1.2501                 0.8708                 1.6340
 IR Inten    --      8.7979                 0.5494                60.4493

                     79                     80                     81
                      A                      A                      A
 Frequencies --   1204.7159              1211.9482              1222.0971
 Red. masses --      1.1674                 1.7390                 1.9063
 Frc consts  --      0.9983                 1.5049                 1.6774
 IR Inten    --     16.4122               229.1835               105.7760

                     82                     83                     84
                      A                      A                      A
 Frequencies --   1251.1259              1257.6408              1282.4884
 Red. masses --      1.5543                 1.4963                 1.1240
 Frc consts  --      1.4334                 1.3944                 1.0893
 IR Inten    --    157.7753                39.3521                 6.8955

                     85                     86                     87
                      A                      A                      A
 Frequencies --   1291.0530              1301.3366              1323.4850
 Red. masses --      1.6018                 1.5095                 1.2204
 Frc consts  --      1.5730                 1.5061                 1.2595
 IR Inten    --    182.9333                37.6886                45.9896

                     88                     89                     90
                      A                      A                      A
 Frequencies --   1324.7247              1334.9333              1352.5723
 Red. masses --      1.3258                 1.8036                 1.2212
 Frc consts  --      1.3708                 1.8937                 1.3163
 IR Inten    --     41.2536                31.5521                37.7439

                     91                     92                     93
                      A                      A                      A
 Frequencies --   1358.6005              1363.9560              1368.0626
 Red. masses --      2.2545                 1.5314                 1.3507
 Frc consts  --      2.4517                 1.6786                 1.4894
 IR Inten    --     11.8660               142.7732                12.5111

                     94                     95                     96
                      A                      A                      A
 Frequencies --   1389.9483              1398.7667              1412.6605
 Red. masses --      1.3838                 1.2383                 1.5284
 Frc consts  --      1.5752                 1.4274                 1.7970
 IR Inten    --     22.7502                91.8644                21.9400

                     97                     98                     99
                      A                      A                      A
 Frequencies --   1416.5330              1451.5804              1466.8093
 Red. masses --      1.1803                 1.6796                 1.0442
 Frc consts  --      1.3954                 2.0851                 1.3237
 IR Inten    --      8.8088               101.5978                 8.1266

                    100                    101                    102
                      A                      A                      A
 Frequencies --   1469.0669              1475.8236              1476.2881
 Red. masses --      2.1986                 1.1092                 1.0538
 Frc consts  --      2.7956                 1.4234                 1.3531
 IR Inten    --     19.8815                 9.4577                 2.2269

                    103                    104                    105
                      A                      A                      A
 Frequencies --   1485.2049              1494.0863              1495.1014
 Red. masses --      1.2395                 1.1932                 1.2937
 Frc consts  --      1.6109                 1.5693                 1.7039
 IR Inten    --     19.2367                38.2957                40.5992

                    106                    107                    108
                      A                      A                      A
 Frequencies --   1502.4374              1520.8981              1624.6572
 Red. masses --      1.0906                 2.1782                 5.7764
 Frc consts  --      1.4504                 2.9685                 8.9831
 IR Inten    --     12.3084                13.7019                 1.2676

                    109                    110                    111
                      A                      A                      A
 Frequencies --   1645.8832              1739.6731              2935.5689
 Red. masses --      5.8901                11.9009                 1.0610
 Frc consts  --      9.4009                21.2209                 5.3872
 IR Inten    --      0.8235               522.6198               266.5161

                    112                    113                    114
                      A                      A                      A
 Frequencies --   2969.5897              3038.8749              3062.1598
 Red. masses --      1.0572                 1.0350                 1.0682
 Frc consts  --      5.4927                 5.6315                 5.9017
 IR Inten    --     87.1440                21.1212                17.2387

                    115                    116                    117
                      A                      A                      A
 Frequencies --   3063.2260              3083.9322              3090.5682
 Red. masses --      1.0579                 1.0612                 1.0775
 Frc consts  --      5.8487                 5.9464                 6.0641
 IR Inten    --     29.0644                16.5667                 6.4468

                    118                    119                    120
                      A                      A                      A
 Frequencies --   3092.8562              3095.7019              3106.8604
 Red. masses --      1.0768                 1.0734                 1.1056
 Frc consts  --      6.0690                 6.0609                 6.2876
 IR Inten    --      7.2685                 9.1627                 0.2664

                    121                    122                    123
                      A                      A                      A
 Frequencies --   3119.6304              3128.2765              3132.5293
 Red. masses --      1.1016                 1.1075                 1.0987
 Frc consts  --      6.3166                 6.3856                 6.3522
 IR Inten    --     34.1700                62.7187                15.6029

                    124                    125                    126
                      A                      A                      A
 Frequencies --   3140.4692              3147.1860              3173.1373
 Red. masses --      1.0962                 1.0949                 1.0854
 Frc consts  --      6.3697                 6.3894                 6.4390
 IR Inten    --     10.7398                13.4643                 0.7122

                    127                    128                    129
                      A                      A                      A
 Frequencies --   3178.7617              3181.9807              3193.6029
 Red. masses --      1.1063                 1.0899                 1.0940
 Frc consts  --      6.5860                 6.5015                 6.5740
 IR Inten    --     11.5496                14.6961                38.5868

                    130                    131                    132
                      A                      A                      A
 Frequencies --   3202.2838              3216.6765              3231.4349
 Red. masses --      1.0962                 1.0993                 1.0915
 Frc consts  --      6.6233                 6.7014                 6.7152
 IR Inten    --     18.1028                 6.5057                 2.0640

 - Thermochemistry -
 -------------------
 Temperature   298.150 Kelvin.  Pressure   1.00000 Atm.
 Atom     1 has atomic number  6 and mass  12.00000

 Molecular mass:   434.99839 amu.
 Principal axes and moments of inertia in atomic units:
                           1         2         3
     Eigenvalues --  8801.43378********************
           X            0.99323  -0.11574  -0.01016
           Y            0.11555   0.99315  -0.01736
           Z            0.01210   0.01606   0.99980
 This molecule is an asymmetric top.
 Rotational symmetry number  1.
 Warning -- assumption of classical behavior for rotation
           may cause significant error
 Rotational temperatures (Kelvin)      0.00984     0.00776     0.00671
 Rotational constants (GHZ):           0.20505     0.16165     0.13987
 Zero-point vibrational energy     944440.6 (Joules/Mol)
                                  225.72673 (Kcal/Mol)
 Warning -- explicit consideration of  41 degrees of freedom as
           vibrations may cause significant error
 Vibrational temperatures:     44.67    52.57    66.19    81.48    88.06
          (Kelvin)             97.76   113.22   124.69   129.12   133.24
                              142.79   154.48   164.24   179.02   184.04
                              190.97   216.10   243.23   261.25   270.81
                              304.67   336.79   343.27   357.88   376.62
                              400.83   417.08   433.71   459.87   469.47
                              497.74   500.53   531.16   579.81   606.69
                              612.70   643.44   689.32   735.18   803.03
                              838.88   906.35   934.58   967.16  1021.35
                             1028.27  1089.28  1120.56  1122.45  1142.19
                             1165.65  1170.55  1206.68  1222.38  1247.52
                             1264.15  1326.42  1346.30  1383.71  1420.96
                             1423.41  1435.62  1444.99  1450.36  1454.04
                             1473.00  1487.55  1515.84  1519.61  1563.98
                             1572.54  1581.77  1625.52  1631.67  1665.29
                             1680.20  1681.68  1709.61  1733.32  1743.72
                             1758.33  1800.09  1809.46  1845.21  1857.54
                             1872.33  1904.20  1905.98  1920.67  1946.05
                             1954.72  1962.43  1968.34  1999.83  2012.51
                             2032.50  2038.07  2088.50  2110.41  2113.66
                             2123.38  2124.05  2136.88  2149.66  2151.12
                             2161.67  2188.23  2337.52  2368.06  2503.00
                             4223.63  4272.58  4372.26  4405.77  4407.30
                             4437.09  4446.64  4449.93  4454.02  4470.08
                             4488.45  4500.89  4507.01  4518.43  4528.10
                             4565.44  4573.53  4578.16  4594.88  4607.37
                             4628.08  4649.31

 Zero-point correction=                           0.359718 (Hartree/Particle)
 Thermal correction to Energy=                    0.387169
 Thermal correction to Enthalpy=                  0.388113
 Thermal correction to Gibbs Free Energy=         0.299043
 Sum of electronic and zero-point Energies=          -3531.203129
 Sum of electronic and thermal Energies=             -3531.175678
 Sum of electronic and thermal Enthalpies=           -3531.174734
 Sum of electronic and thermal Free Energies=        -3531.263804

                     E (Thermal)             CV                S
                      KCal/Mol        Cal/Mol-Kelvin    Cal/Mol-Kelvin
 Total                  242.952             98.559            187.464
 Electronic               0.000              0.000              3.561
 Translational            0.889              2.981             44.100
 Rotational               0.889              2.981             35.493
 Vibrational            241.175             92.598            104.310
 Vibration     1          0.594              1.983              5.761
 Vibration     2          0.594              1.982              5.439
 Vibration     3          0.595              1.979              4.982
 Vibration     4          0.596              1.975              4.571
 Vibration     5          0.597              1.973              4.418
 Vibration     6          0.598              1.969              4.212
 Vibration     7          0.600              1.963              3.923
 Vibration     8          0.601              1.958              3.734
 Vibration     9          0.602              1.956              3.666
 Vibration    10          0.602              1.954              3.604
 Vibration    11          0.604              1.950              3.469
 Vibration    12          0.606              1.943              3.316
 Vibration    13          0.607              1.938              3.197
 Vibration    14          0.610              1.929              3.030
 Vibration    15          0.611              1.925              2.977
 Vibration    16          0.613              1.921              2.906
 Vibration    17          0.618              1.902              2.670
 Vibration    18          0.625              1.881              2.446
 Vibration    19          0.630              1.865              2.312
 Vibration    20          0.633              1.856              2.245
 Vibration    21          0.643              1.823              2.028
 Vibration    22          0.654              1.789              1.847
 Vibration    23          0.657              1.782              1.813
 Vibration    24          0.662              1.765              1.739
 Vibration    25          0.669              1.743              1.650
 Vibration    26          0.679              1.713              1.542
 Vibration    27          0.686              1.693              1.475
 Vibration    28          0.693              1.671              1.409
 Vibration    29          0.706              1.636              1.312
 Vibration    30          0.710              1.623              1.278
 Vibration    31          0.724              1.584              1.185
 Vibration    32          0.726              1.580              1.176
 Vibration    33          0.741              1.536              1.083
 Vibration    34          0.768              1.464              0.952
 Vibration    35          0.784              1.423              0.886
 Vibration    36          0.788              1.414              0.872
 Vibration    37          0.806              1.367              0.804
 Vibration    38          0.836              1.296              0.712
 Vibration    39          0.866              1.226              0.631
 Vibration    40          0.914              1.122              0.528
 Vibration    41          0.940              1.068              0.480

 Optimization completed.
    -- Stationary point found.
 Normal termination of Gaussian 16 at Wed Jun 30 13:40:41 2021.
