 Gaussian 16, Revision A.03,
 Gaussian 16:  ES64L-G16RevA.03 25-Dec-2016

 ----------------------------------------------------------------------
 #p opt=(maxstep=5) freq=noraman b3lyp jul-cc-pvdz pop=none empiricaldi
 spersion=gd3bj scrf=(pcm,solvent=water)
 ----------------------------------------------------------------------

 -----
 title
 -----
 Symbolic Z-matrix:
 Charge =  0 Multiplicity = 6

 SCF Done:  E(UB3LYP) =  -3531.52305272     A.U. after   23 cycles
 SCF Done:  E(UB3LYP) =  -3531.52967871     A.U. after   14 cycles
 SCF Done:  E(UB3LYP) =  -3531.54054232     A.U. after   15 cycles
 SCF Done:  E(UB3LYP) =  -3531.55221370     A.U. after   15 cycles
 SCF Done:  E(UB3LYP) =  -3531.55631240     A.U. after   15 cycles
 SCF Done:  E(UB3LYP) =  -3531.55944578     A.U. after   15 cycles
 SCF Done:  E(UB3LYP) =  -3531.55941408     A.U. after   19 cycles
 SCF Done:  E(UB3LYP) =  -3531.56032715     A.U. after   16 cycles
 SCF Done:  E(UB3LYP) =  -3531.56024579     A.U. after   15 cycles
 SCF Done:  E(UB3LYP) =  -3531.56095177     A.U. after   15 cycles
 SCF Done:  E(UB3LYP) =  -3531.56205986     A.U. after   14 cycles
 SCF Done:  E(UB3LYP) =  -3531.56207255     A.U. after   13 cycles
 SCF Done:  E(UB3LYP) =  -3531.56209424     A.U. after   13 cycles
 SCF Done:  E(UB3LYP) =  -3531.56210271     A.U. after   13 cycles
 SCF Done:  E(UB3LYP) =  -3531.56211143     A.U. after   11 cycles
 SCF Done:  E(UB3LYP) =  -3531.56211374     A.U. after   11 cycles
 SCF Done:  E(UB3LYP) =  -3531.56211452     A.U. after   11 cycles
 SCF Done:  E(UB3LYP) =  -3531.56211337     A.U. after   11 cycles
 SCF Done:  E(UB3LYP) =  -3531.56211127     A.U. after   10 cycles
 Optimization completed.
    -- Stationary point found.
 Normal termination of Gaussian 16 at Wed Jun 30 05:29:41 2021.

 ----------------------------------------------------------------------
 #P Geom=AllCheck Guess=TCheck SCRF=Check GenChk UB3LYP/Jul-CC-pVDZ Fre
 q
 ----------------------------------------------------------------------

 Structure from the checkpoint file:  "/scratch/kwaneu.3005247.bmbhpcps002/Gau-12825.chk"
 -----
 title
 -----
 Charge =  0 Multiplicity = 6

                         Standard orientation:
 ---------------------------------------------------------------------
 Center     Atomic      Atomic             Coordinates (Angstroms)
 Number     Number       Type             X           Y           Z
 ---------------------------------------------------------------------
      1          6           0        1.759177    0.249439    1.999479
      2          6           0        1.119051   -0.183846    0.830703
      3          6           0        1.337225   -1.499949    0.397037
      4          6           0        2.172370   -2.359680    1.110932
      5          6           0        2.807402   -1.918748    2.276321
      6          6           0        2.594719   -0.611079    2.718320
      7          6           0        0.289412    0.751368   -0.059959
      8          6           0        1.247119    1.486499   -1.076899
      9          6           0        1.835440    2.646788   -0.275025
     10          6           0        0.684965    3.179176    0.601419
     11          6           0       -0.300217    1.932398    0.793433
     12          6           0       -1.557890    2.550961    0.393323
     13          6           0       -2.001887    2.699011   -0.989069
     14          8           0       -0.701991    0.050125   -0.747599
     15         26           0       -2.130646   -1.001170   -0.250496
     16         17           0       -3.903583   -0.269044   -1.472236
     17          6           0       -2.433461    3.041979    1.464949
     18         17           0       -1.827533   -3.200021   -0.636989
     19         17           0       -2.557516   -0.658015    1.937127
     20          1           0        0.853707   -1.850017   -0.511458
     21          1           0        2.329732   -3.377405    0.752299
     22          1           0        3.462004   -2.588620    2.834822
     23          1           0        3.081088   -0.252082    3.625764
     24          1           0        1.631329    1.263992    2.371578
     25          1           0        0.616045    1.853688   -1.892641
     26          6           0        2.235317    0.536825   -1.718539
     27          1           0        2.237909    3.431332   -0.924979
     28          1           0        2.647930    2.285812    0.362828
     29          1           0        0.187815    4.024339    0.106771
     30          1           0        0.998742    3.534828    1.587288
     31          1           0       -0.354096    1.652503    1.846615
     32          1           0       -1.865487    3.397167    2.334053
     33          1           0       -2.953806    2.123775    1.810296
     34          1           0       -3.176213    3.770340    1.130113
     35          1           0       -2.514050    3.655905   -1.144928
     36          1           0       -2.782798    1.913330   -1.105774
     37          1           0       -1.240554    2.507045   -1.743194
     38          8           0        3.406797    0.499341   -1.074618
     39          8           0        1.976288   -0.141188   -2.697704
     40          6           0        4.366590   -0.506000   -1.501789
     41          6           0        5.482843   -0.517022   -0.480542
     42          1           0        4.719626   -0.240189   -2.506865
     43          1           0        3.846286   -1.470074   -1.556058
     44          1           0        6.234840   -1.262763   -0.772859
     45          1           0        5.093549   -0.781958    0.511799
     46          1           0        5.972139    0.464912   -0.422132
 ---------------------------------------------------------------------

 SCF Done:  E(UB3LYP) =  -3531.56211127     A.U. after    2 cycles

 Isotropic polarizability for W=    0.000000      419.76 Bohr**3.
 End of Minotr F.D. properties file   721 does not exist.

                      1                      2                      3
                      A                      A                      A
 Frequencies --     37.9514                46.6629                50.4839
 Red. masses --      4.3858                 5.9597                 3.8667
 Frc consts  --      0.0037                 0.0076                 0.0058
 IR Inten    --      3.4433                 1.4680                 0.3530

                      4                      5                      6
                      A                      A                      A
 Frequencies --     62.2818                67.5435                76.4238
 Red. masses --      6.0326                 5.3960                 3.8789
 Frc consts  --      0.0138                 0.0145                 0.0133
 IR Inten    --      0.2678                 0.8015                 0.1795

                      7                      8                      9
                      A                      A                      A
 Frequencies --     83.8879                86.5504                91.7179
 Red. masses --      3.3904                 8.2074                 7.0056
 Frc consts  --      0.0141                 0.0362                 0.0347
 IR Inten    --      4.0286                 9.3169                 3.3964

                     10                     11                     12
                      A                      A                      A
 Frequencies --     95.0207               105.8127               111.5433
 Red. masses --      3.3416                 6.6888                 7.7164
 Frc consts  --      0.0178                 0.0441                 0.0566
 IR Inten    --      1.4259                 1.5890                 5.1014

                     13                     14                     15
                      A                      A                      A
 Frequencies --    116.8123               129.4966               131.4577
 Red. masses --      8.6881                 5.1114                 6.2067
 Frc consts  --      0.0698                 0.0505                 0.0632
 IR Inten    --     22.6023                 9.4331                 4.3210

                     16                     17                     18
                      A                      A                      A
 Frequencies --    134.0257               147.0518               160.3999
 Red. masses --      6.2299                 1.9458                 2.1555
 Frc consts  --      0.0659                 0.0248                 0.0327
 IR Inten    --      8.6237                 2.4031                 5.3937

                     19                     20                     21
                      A                      A                      A
 Frequencies --    166.1276               183.3067               188.0600
 Red. masses --      2.1011                 1.3232                 3.3405
 Frc consts  --      0.0342                 0.0262                 0.0696
 IR Inten    --      2.9212                32.3502                10.3959

                     22                     23                     24
                      A                      A                      A
 Frequencies --    213.1044               235.2298               254.2115
 Red. masses --      2.4466                 2.2749                 4.3256
 Frc consts  --      0.0655                 0.0742                 0.1647
 IR Inten    --      2.0801                 1.0378                17.5240

                     25                     26                     27
                      A                      A                      A
 Frequencies --    267.6410               284.3744               296.7706
 Red. masses --      1.7335                 3.6590                 5.8406
 Frc consts  --      0.0732                 0.1743                 0.3031
 IR Inten    --      3.7606                14.4683                22.1866

                     28                     29                     30
                      A                      A                      A
 Frequencies --    298.1761               317.6275               336.1839
 Red. masses --      4.3745                11.2983                28.2066
 Frc consts  --      0.2292                 0.6716                 1.8783
 IR Inten    --     22.5160                66.5946               151.7732

                     31                     32                     33
                      A                      A                      A
 Frequencies --    345.6856               356.5184               378.3377
 Red. masses --     22.4138                 7.2888                 3.5838
 Frc consts  --      1.5781                 0.5458                 0.3022
 IR Inten    --    197.8199                11.6654                24.2320

                     34                     35                     36
                      A                      A                      A
 Frequencies --    404.3826               418.1838               426.5999
 Red. masses --      5.4856                 2.9257                 5.3153
 Frc consts  --      0.5285                 0.3015                 0.5699
 IR Inten    --     18.2208                 0.6810                22.3760

                     37                     38                     39
                      A                      A                      A
 Frequencies --    470.7175               494.0494               508.9987
 Red. masses --      2.8866                 2.9209                 2.7825
 Frc consts  --      0.3768                 0.4201                 0.4247
 IR Inten    --      2.0397                 6.7222                 8.0659

                     40                     41                     42
                      A                      A                      A
 Frequencies --    566.3749               572.8825               630.6341
 Red. masses --      3.8464                 2.5567                 6.3020
 Frc consts  --      0.7270                 0.4944                 1.4767
 IR Inten    --     79.0732                 3.3421                 0.6968

                     43                     44                     45
                      A                      A                      A
 Frequencies --    653.2784               667.3241               706.9531
 Red. masses --      5.2918                 3.3985                 2.1238
 Frc consts  --      1.3306                 0.8917                 0.6254
 IR Inten    --     27.9040                52.1894               128.5177

                     46                     47                     48
                      A                      A                      A
 Frequencies --    709.4719               753.0679               762.2129
 Red. masses --      2.8265                 3.2506                 1.5089
 Frc consts  --      0.8382                 1.0861                 0.5165
 IR Inten    --     18.3122                25.6981                25.3725

                     49                     50                     51
                      A                      A                      A
 Frequencies --    782.6045               790.8864               810.5980
 Red. masses --      3.0292                 2.3920                 1.2991
 Frc consts  --      1.0931                 0.8815                 0.5029
 IR Inten    --     56.3799                10.8062                11.5147

                     52                     53                     54
                      A                      A                      A
 Frequencies --    811.8576               839.4334               846.2881
 Red. masses --      2.3791                 3.3022                 1.2574
 Frc consts  --      0.9239                 1.3710                 0.5306
 IR Inten    --     72.6860                42.9420                 1.8590

                     55                     56                     57
                      A                      A                      A
 Frequencies --    865.8633               876.2996               921.3722
 Red. masses --      2.8428                 2.5855                 1.6481
 Frc consts  --      1.2557                 1.1698                 0.8243
 IR Inten    --     27.0721                 1.8207                52.7833

                     58                     59                     60
                      A                      A                      A
 Frequencies --    933.0438               964.8178               985.0921
 Red. masses --      1.8549                 2.7436                 1.3779
 Frc consts  --      0.9514                 1.5048                 0.7878
 IR Inten    --     13.3647                 6.7262                 1.1318

                     61                     62                     63
                      A                      A                      A
 Frequencies --    988.2905               998.1435              1001.6628
 Red. masses --      2.7573                 2.5108                 1.3281
 Frc consts  --      1.5868                 1.4738                 0.7851
 IR Inten    --      8.0059                30.8804                 6.4990

                     64                     65                     66
                      A                      A                      A
 Frequencies --   1010.8551              1011.7229              1016.7271
 Red. masses --      2.4428                 2.3936                 1.8982
 Frc consts  --      1.4707                 1.4435                 1.1561
 IR Inten    --      2.9550                 3.2435                23.5384

                     67                     68                     69
                      A                      A                      A
 Frequencies --   1042.3373              1053.2114              1060.8446
 Red. masses --      2.3614                 2.2578                 3.4210
 Frc consts  --      1.5116                 1.4756                 2.2683
 IR Inten    --    144.8480                 2.8917                51.5821

                     70                     71                     72
                      A                      A                      A
 Frequencies --   1082.3510              1088.4060              1097.9635
 Red. masses --      2.5439                 2.4338                 1.9130
 Frc consts  --      1.7558                 1.6987                 1.3587
 IR Inten    --     98.6185                70.2904               218.1126

                     73                     74                     75
                      A                      A                      A
 Frequencies --   1130.5011              1131.0024              1158.2592
 Red. masses --      2.2569                 2.2125                 1.9886
 Frc consts  --      1.6994                 1.6675                 1.5718
 IR Inten    --     56.5846               283.4977                29.9673

                     76                     77                     78
                      A                      A                      A
 Frequencies --   1167.7315              1168.6301              1187.7015
 Red. masses --      1.5511                 1.0818                 1.9229
 Frc consts  --      1.2461                 0.8705                 1.5981
 IR Inten    --      7.8643                 0.1328                62.4055

                     79                     80                     81
                      A                      A                      A
 Frequencies --   1202.7019              1218.4014              1243.2993
 Red. masses --      1.1373                 1.7164                 1.4481
 Frc consts  --      0.9693                 1.5012                 1.3189
 IR Inten    --      4.0766                81.6757                22.5935

                     82                     83                     84
                      A                      A                      A
 Frequencies --   1257.6088              1278.0239              1282.3927
 Red. masses --      1.5799                 1.6430                 1.2679
 Frc consts  --      1.4722                 1.5811                 1.2285
 IR Inten    --     94.6270               131.8442                34.2906

                     85                     86                     87
                      A                      A                      A
 Frequencies --   1290.2310              1305.4775              1321.3474
 Red. masses --      1.7947                 1.4669                 1.1956
 Frc consts  --      1.7603                 1.4729                 1.2299
 IR Inten    --    271.2642                23.0790                15.8027

                     88                     89                     90
                      A                      A                      A
 Frequencies --   1323.0972              1333.3557              1337.2056
 Red. masses --      1.3021                 1.5656                 1.2774
 Frc consts  --      1.3430                 1.6399                 1.3458
 IR Inten    --    103.7483                39.6240                37.8682

                     91                     92                     93
                      A                      A                      A
 Frequencies --   1358.0997              1365.6877              1366.3008
 Red. masses --      2.6120                 1.5617                 1.4524
 Frc consts  --      2.8385                 1.7161                 1.5974
 IR Inten    --      0.6085                85.5421                48.8932

                     94                     95                     96
                      A                      A                      A
 Frequencies --   1378.9917              1392.9791              1408.8570
 Red. masses --      1.3545                 1.1324                 1.4805
 Frc consts  --      1.5176                 1.2947                 1.7314
 IR Inten    --     26.9158                16.0902                 5.4013

                     97                     98                     99
                      A                      A                      A
 Frequencies --   1417.3021              1455.0352              1466.2900
 Red. masses --      1.1627                 1.8174                 1.0404
 Frc consts  --      1.3761                 2.2670                 1.3179
 IR Inten    --      1.7933               109.9802                 6.5226

                    100                    101                    102
                      A                      A                      A
 Frequencies --   1469.6738              1475.4502              1477.5816
 Red. masses --      2.1908                 1.0562                 1.1157
 Frc consts  --      2.7881                 1.3547                 1.4352
 IR Inten    --     19.9409                 0.6542                11.1838

                    103                    104                    105
                      A                      A                      A
 Frequencies --   1485.3297              1496.2063              1499.2935
 Red. masses --      1.2125                 1.2274                 1.2180
 Frc consts  --      1.5760                 1.6189                 1.6132
 IR Inten    --     10.1150                53.7171                25.1398

                    106                    107                    108
                      A                      A                      A
 Frequencies --   1499.9269              1520.6073              1625.3527
 Red. masses --      1.0888                 2.1879                 5.8160
 Frc consts  --      1.4433                 2.9807                 9.0525
 IR Inten    --     17.0665                14.8418                 1.6379

                    109                    110                    111
                      A                      A                      A
 Frequencies --   1646.2631              1733.2498              2903.6344
 Red. masses --      5.9018                11.4171                 1.0633
 Frc consts  --      9.4240                20.2083                 5.2820
 IR Inten    --      1.9145               531.1739               372.3188

                    112                    113                    114
                      A                      A                      A
 Frequencies --   2967.5677              3038.9628              3061.6979
 Red. masses --      1.0574                 1.0349                 1.0673
 Frc consts  --      5.4864                 5.6313                 5.8944
 IR Inten    --     79.4689                25.5268                16.8992

                    115                    116                    117
                      A                      A                      A
 Frequencies --   3064.8794              3088.2219              3095.9679
 Red. masses --      1.0581                 1.0608                 1.0722
 Frc consts  --      5.8561                 5.9608                 6.0550
 IR Inten    --     30.4566                19.9901                 1.4591

                    118                    119                    120
                      A                      A                      A
 Frequencies --   3102.1685              3107.9899              3109.0747
 Red. masses --      1.0713                 1.0837                 1.1050
 Frc consts  --      6.0740                 6.1677                 6.2933
 IR Inten    --      3.6571                18.4094                 1.6573

                    121                    122                    123
                      A                      A                      A
 Frequencies --   3120.0131              3129.0773              3130.6717
 Red. masses --      1.1016                 1.0971                 1.1075
 Frc consts  --      6.3179                 6.3288                 6.3952
 IR Inten    --     32.6096                 7.4874                57.5752

                    124                    125                    126
                      A                      A                      A
 Frequencies --   3143.8693              3148.6398              3173.0080
 Red. masses --      1.0947                 1.0982                 1.0855
 Frc consts  --      6.3751                 6.4149                 6.4390
 IR Inten    --      9.4687                16.9592                 0.6055

                    127                    128                    129
                      A                      A                      A
 Frequencies --   3180.4580              3181.8012              3194.1185
 Red. masses --      1.1060                 1.0900                 1.0945
 Frc consts  --      6.5917                 6.5015                 6.5794
 IR Inten    --     11.8573                16.4703                37.5166

                    130                    131                    132
                      A                      A                      A
 Frequencies --   3203.9669              3216.7850              3220.3989
 Red. masses --      1.0948                 1.1000                 1.0924
 Frc consts  --      6.6215                 6.7064                 6.6751
 IR Inten    --     16.3987                 4.7683                 2.0621

 - Thermochemistry -
 -------------------
 Temperature   298.150 Kelvin.  Pressure   1.00000 Atm.
 Atom     1 has atomic number  6 and mass  12.00000

 Molecular mass:   434.99839 amu.
 Principal axes and moments of inertia in atomic units:
                           1         2         3
     Eigenvalues --  7377.14751********************
           X            0.99892  -0.04641  -0.00332
           Y            0.04644   0.99889   0.00743
           Z            0.00297  -0.00758   0.99997
 This molecule is an asymmetric top.
 Rotational symmetry number  1.
 Warning -- assumption of classical behavior for rotation
           may cause significant error
 Rotational temperatures (Kelvin)      0.01174     0.00680     0.00598
 Rotational constants (GHZ):           0.24464     0.14174     0.12459
 Zero-point vibrational energy     944695.2 (Joules/Mol)
                                  225.78757 (Kcal/Mol)
 Warning -- explicit consideration of  41 degrees of freedom as
           vibrations may cause significant error
 Vibrational temperatures:     54.60    67.14    72.64    89.61    97.18
          (Kelvin)            109.96   120.70   124.53   131.96   136.71
                              152.24   160.49   168.07   186.32   189.14
                              192.83   211.57   230.78   239.02   263.74
                              270.58   306.61   338.44   365.75   385.08
                              409.15   426.99   429.01   457.00   483.69
                              497.36   512.95   544.34   581.82   601.67
                              613.78   677.26   710.83   732.34   814.89
                              824.25   907.34   939.92   960.13  1017.15
                             1020.77  1083.50  1096.65  1125.99  1137.91
                             1166.27  1168.08  1207.76  1217.62  1245.78
                             1260.80  1325.65  1342.44  1388.16  1417.33
                             1421.93  1436.11  1441.17  1454.39  1455.64
                             1462.84  1499.69  1515.34  1526.32  1557.26
                             1565.97  1579.72  1626.54  1627.26  1666.48
                             1680.11  1681.40  1708.84  1730.42  1753.01
                             1788.83  1809.42  1838.79  1845.08  1856.35
                             1878.29  1901.12  1903.64  1918.40  1923.94
                             1954.00  1964.92  1965.80  1984.06  2004.19
                             2027.03  2039.18  2093.47  2109.66  2114.53
                             2122.84  2125.91  2137.06  2152.71  2157.15
                             2158.06  2187.81  2338.52  2368.61  2493.76
                             4177.68  4269.67  4372.39  4405.10  4409.68
                             4443.26  4454.41  4463.33  4471.70  4473.26
                             4489.00  4502.04  4504.34  4523.33  4530.19
                             4565.25  4575.97  4577.90  4595.62  4609.79
                             4628.24  4633.44

 Zero-point correction=                           0.359815 (Hartree/Particle)
 Thermal correction to Energy=                    0.387171
 Thermal correction to Enthalpy=                  0.388116
 Thermal correction to Gibbs Free Energy=         0.299881
 Sum of electronic and zero-point Energies=          -3531.202296
 Sum of electronic and thermal Energies=             -3531.174940
 Sum of electronic and thermal Enthalpies=           -3531.173996
 Sum of electronic and thermal Free Energies=        -3531.262230

                     E (Thermal)             CV                S
                      KCal/Mol        Cal/Mol-Kelvin    Cal/Mol-Kelvin
 Total                  242.954             98.519            185.705
 Electronic               0.000              0.000              3.561
 Translational            0.889              2.981             44.100
 Rotational               0.889              2.981             35.563
 Vibrational            241.176             92.558            102.481
 Vibration     1          0.594              1.982              5.363
 Vibration     2          0.595              1.979              4.954
 Vibration     3          0.595              1.977              4.798
 Vibration     4          0.597              1.972              4.384
 Vibration     5          0.598              1.970              4.224
 Vibration     6          0.599              1.965              3.981
 Vibration     7          0.601              1.960              3.798
 Vibration     8          0.601              1.959              3.737
 Vibration     9          0.602              1.955              3.623
 Vibration    10          0.603              1.953              3.554
 Vibration    11          0.605              1.945              3.344
 Vibration    12          0.607              1.940              3.242
 Vibration    13          0.608              1.935              3.152
 Vibration    14          0.612              1.924              2.954
 Vibration    15          0.612              1.922              2.925
 Vibration    16          0.613              1.919              2.887
 Vibration    17          0.617              1.906              2.710
 Vibration    18          0.622              1.891              2.545
 Vibration    19          0.624              1.884              2.479
 Vibration    20          0.631              1.863              2.294
 Vibration    21          0.633              1.856              2.247
 Vibration    22          0.644              1.821              2.017
 Vibration    23          0.655              1.787              1.839
 Vibration    24          0.665              1.756              1.701
 Vibration    25          0.673              1.733              1.611
 Vibration    26          0.683              1.703              1.507
 Vibration    27          0.690              1.680              1.435
 Vibration    28          0.691              1.677              1.427
 Vibration    29          0.704              1.640              1.322
 Vibration    30          0.717              1.603              1.230
 Vibration    31          0.724              1.584              1.186
 Vibration    32          0.732              1.562              1.137
 Vibration    33          0.749              1.516              1.046
 Vibration    34          0.770              1.461              0.947
 Vibration    35          0.781              1.431              0.898
 Vibration    36          0.788              1.412              0.870
 Vibration    37          0.828              1.315              0.736
 Vibration    38          0.850              1.263              0.673
 Vibration    39          0.864              1.230              0.636
 Vibration    40          0.922              1.104              0.511
 Vibration    41          0.929              1.090              0.499

                           ! Non-Optimized Parameters !
 Normal termination of Gaussian 16 at Wed Jun 30 08:51:13 2021.
