 Gaussian 16, Revision A.03,
 Gaussian 16:  ES64L-G16RevA.03 25-Dec-2016

 ----------------------------------------------------------------------
 #p opt=(calcfc,ts,maxstep=5,noeigentest) freq=noraman b3lyp scrf=(solv
 ent=water,pcm) pop=none empiricaldispersion=gd3bj jul-cc-pvdz
 ----------------------------------------------------------------------

 -----
 title
 -----
 Symbolic Z-matrix:
 Charge =  0 Multiplicity = 6

 SCF Done:  E(UB3LYP) =  -3531.56335934     A.U. after   25 cycles
 Optimization completed on the basis of negligible forces.
    -- Stationary point found.
 Normal termination of Gaussian 16 at Wed Jul 14 02:07:39 2021.

 ----------------------------------------------------------------------
 #P Geom=AllCheck Guess=TCheck SCRF=Check GenChk UB3LYP/Jul-CC-pVDZ Fre
 q
 ----------------------------------------------------------------------

 Structure from the checkpoint file:  "/scratch/kwaneu.3017250.bmbhpcps002/Gau-37830.chk"
 -----
 title
 -----
 Charge =  0 Multiplicity = 6

                         Standard orientation:
 ---------------------------------------------------------------------
 Center     Atomic      Atomic             Coordinates (Angstroms)
 Number     Number       Type             X           Y           Z
 ---------------------------------------------------------------------
      1          6           0       -3.153759    0.909342   -1.359594
      2          6           0       -2.208574    0.114644   -0.691139
      3          6           0       -2.288771   -1.277696   -0.828478
      4          6           0       -3.278317   -1.861495   -1.624776
      5          6           0       -4.209289   -1.062617   -2.292520
      6          6           0       -4.142827    0.328001   -2.154202
      7          6           0       -1.153434    0.739528    0.210826
      8          6           0       -0.677630    2.158369   -0.280388
      9          6           0       -1.426439    3.192065    0.576568
     10          6           0       -1.529581    2.551209    1.966518
     11          6           0       -1.817745    1.074415    1.681225
     12          6           0       -1.203287    0.043228    2.525315
     13          6           0       -1.846352   -1.265921    2.642094
     14          8           0       -0.082142   -0.132972    0.432572
     15         26           0        1.254797   -1.304099   -0.004960
     16         17           0        0.597453   -3.314103    0.843452
     17          6           0        0.015516    0.304028    3.294081
     18         17           0        3.109344   -0.735404    1.143805
     19         17           0        1.706626   -1.605677   -2.186523
     20          1           0       -1.580584   -1.919843   -0.313875
     21          1           0       -3.317182   -2.947081   -1.720997
     22          1           0       -4.980654   -1.517042   -2.915171
     23          1           0       -4.862167    0.965857   -2.668701
     24          1           0       -3.133555    1.993295   -1.269137
     25          1           0       -0.900032    2.257375   -1.345902
     26          6           0        0.826365    2.298514   -0.117901
     27          1           0       -0.909293    4.157749    0.600406
     28          1           0       -2.425971    3.363325    0.158576
     29          1           0       -0.582753    2.680081    2.496841
     30          1           0       -2.325938    2.989572    2.578583
     31          1           0       -2.891321    0.886074    1.591752
     32          1           0        0.685303    1.003039    2.782618
     33          1           0       -0.328770    0.812299    4.217235
     34          1           0        0.529566   -0.616334    3.585176
     35          1           0       -2.132966   -1.378426    3.704855
     36          1           0       -2.731586   -1.379052    2.012474
     37          1           0       -1.108351   -2.061308    2.454646
     38          8           0        1.456213    2.057595   -1.272457
     39          8           0        1.391895    2.615586    0.913201
     40          6           0        2.909661    2.181296   -1.269289
     41          6           0        3.384953    1.935568   -2.684101
     42          1           0        3.162385    3.188249   -0.913423
     43          1           0        3.307837    1.445366   -0.561636
     44          1           0        4.479919    2.023357   -2.716288
     45          1           0        3.104692    0.927700   -3.016707
     46          1           0        2.957843    2.673925   -3.376805
 ---------------------------------------------------------------------

 SCF Done:  E(UB3LYP) =  -3531.56335934     A.U. after    2 cycles

 Isotropic polarizability for W=    0.000000      426.47 Bohr**3.
 End of Minotr F.D. properties file   721 does not exist.

 ******    2 imaginary frequencies (negative Signs) ******

                      1                      2                      3
                      A                      A                      A
 Frequencies --   -146.8058               -10.6048                45.1803
 Red. masses --      2.6037                 4.2725                 4.9312
 Frc consts  --      0.0331                 0.0003                 0.0059
 IR Inten    --     11.9621                 4.0553                 4.3998

                      4                      5                      6
                      A                      A                      A
 Frequencies --     51.0757                53.9437                65.7903
 Red. masses --      3.7279                 4.9346                 5.6781
 Frc consts  --      0.0057                 0.0085                 0.0145
 IR Inten    --      5.0353                 2.1966                 5.8281

                      7                      8                      9
                      A                      A                      A
 Frequencies --     73.5788                78.4733                88.9465
 Red. masses --      4.6069                 4.1128                 6.6458
 Frc consts  --      0.0147                 0.0149                 0.0310
 IR Inten    --      1.0364                 9.2299                28.3075

                     10                     11                     12
                      A                      A                      A
 Frequencies --     96.4690                99.7826               105.1211
 Red. masses --      4.2282                 9.8551                 3.9589
 Frc consts  --      0.0232                 0.0578                 0.0258
 IR Inten    --      6.0962                 1.4169                 8.1031

                     13                     14                     15
                      A                      A                      A
 Frequencies --    111.5835               118.0197               119.5255
 Red. masses --      6.7612                 5.4317                 4.2495
 Frc consts  --      0.0496                 0.0446                 0.0358
 IR Inten    --      4.5655                 7.7754                 3.0455

                     16                     17                     18
                      A                      A                      A
 Frequencies --    137.2567               141.2486               148.1644
 Red. masses --      3.5678                 4.5176                 3.9315
 Frc consts  --      0.0396                 0.0531                 0.0509
 IR Inten    --     10.2784                 3.4996                10.3705

                     19                     20                     21
                      A                      A                      A
 Frequencies --    168.4550               185.5144               190.6764
 Red. masses --      2.4546                 2.7754                 2.2631
 Frc consts  --      0.0410                 0.0563                 0.0485
 IR Inten    --      8.8354                12.5369                 4.9563

                     22                     23                     24
                      A                      A                      A
 Frequencies --    216.3598               223.9119               258.9439
 Red. masses --      3.0350                 2.1504                 3.8190
 Frc consts  --      0.0837                 0.0635                 0.1509
 IR Inten    --      3.2719                25.4973                 4.8052

                     25                     26                     27
                      A                      A                      A
 Frequencies --    260.4118               274.6004               295.1587
 Red. masses --      2.4781                 2.8131                 3.3524
 Frc consts  --      0.0990                 0.1250                 0.1721
 IR Inten    --     12.9206                 7.3570                 6.8058

                     28                     29                     30
                      A                      A                      A
 Frequencies --    309.8146               316.8339               333.1016
 Red. masses --      2.3505                23.4403                 4.9139
 Frc consts  --      0.1329                 1.3864                 0.3212
 IR Inten    --      1.6183               121.3569                21.4730

                     31                     32                     33
                      A                      A                      A
 Frequencies --    338.7923               350.7745               354.6687
 Red. masses --     12.9434                 8.2225                11.3948
 Frc consts  --      0.8753                 0.5961                 0.8445
 IR Inten    --     80.1029               117.2746               174.3296

                     34                     35                     36
                      A                      A                      A
 Frequencies --    380.9417               408.1136               423.9289
 Red. masses --      4.0540                 3.2929                 3.0670
 Frc consts  --      0.3466                 0.3231                 0.3248
 IR Inten    --     44.0452                 5.0251                 0.0821

                     37                     38                     39
                      A                      A                      A
 Frequencies --    428.7631               476.5136               506.7240
 Red. masses --      4.0067                 3.0017                 3.1665
 Frc consts  --      0.4340                 0.4016                 0.4790
 IR Inten    --      8.2654                10.9412                12.8623

                     40                     41                     42
                      A                      A                      A
 Frequencies --    527.5508               567.0944               629.1775
 Red. masses --      2.5676                 3.2121                 5.4821
 Frc consts  --      0.4210                 0.6086                 1.2786
 IR Inten    --     16.0290                14.4154                 2.7671

                     43                     44                     45
                      A                      A                      A
 Frequencies --    637.8568               661.4531               695.1993
 Red. masses --      3.7084                 4.2059                 4.5775
 Frc consts  --      0.8890                 1.0842                 1.3035
 IR Inten    --     23.4204                80.4590               109.2158

                     46                     47                     48
                      A                      A                      A
 Frequencies --    715.7337               736.1184               750.1462
 Red. masses --      1.6166                 3.5585                 3.3276
 Frc consts  --      0.4879                 1.1361                 1.1032
 IR Inten    --     88.2473                11.0202                80.0156

                     49                     50                     51
                      A                      A                      A
 Frequencies --    796.5131               800.3660               812.3231
 Red. masses --      1.5193                 2.2490                 1.2081
 Frc consts  --      0.5679                 0.8488                 0.4697
 IR Inten    --     18.5251                 5.6329                 7.1197

                     52                     53                     54
                      A                      A                      A
 Frequencies --    837.8590               855.2203               863.5575
 Red. masses --      2.6936                 1.3184                 2.2946
 Frc consts  --      1.1141                 0.5681                 1.0082
 IR Inten    --     10.7342                 0.4601                25.1862

                     55                     56                     57
                      A                      A                      A
 Frequencies --    864.8902               907.6412               921.4441
 Red. masses --      2.7898                 3.9044                 3.9734
 Frc consts  --      1.2296                 1.8951                 1.9877
 IR Inten    --     39.4312                43.1373                40.9544

                     58                     59                     60
                      A                      A                      A
 Frequencies --    943.9244               955.8213               972.6845
 Red. masses --      1.5868                 1.9841                 2.5614
 Frc consts  --      0.8330                 1.0680                 1.4278
 IR Inten    --      5.4508                 5.8226                84.1187

                     61                     62                     63
                      A                      A                      A
 Frequencies --    995.6134               999.6242              1001.8930
 Red. masses --      1.3401                 1.4110                 2.8064
 Frc consts  --      0.7827                 0.8307                 1.6598
 IR Inten    --      2.0202                10.2398                56.0509

                     64                     65                     66
                      A                      A                      A
 Frequencies --   1008.6646              1012.1000              1026.0476
 Red. masses --      3.9353                 2.1569                 1.3153
 Frc consts  --      2.3590                 1.3018                 0.8159
 IR Inten    --      8.7889                74.9131                 1.7551

                     67                     68                     69
                      A                      A                      A
 Frequencies --   1036.8527              1052.9727              1057.8752
 Red. masses --      2.4752                 2.1139                 2.1443
 Frc consts  --      1.5678                 1.3809                 1.4139
 IR Inten    --     12.8852                37.6636                17.3459

                     70                     71                     72
                      A                      A                      A
 Frequencies --   1070.5275              1091.2618              1110.9049
 Red. masses --      2.0877                 2.5684                 2.0464
 Frc consts  --      1.4096                 1.8021                 1.4879
 IR Inten    --    142.4748                73.9132                96.4390

                     73                     74                     75
                      A                      A                      A
 Frequencies --   1131.2291              1134.9348              1164.0579
 Red. masses --      2.0985                 2.0486                 1.6689
 Frc consts  --      1.5822                 1.5547                 1.3324
 IR Inten    --     16.8129                83.4817                40.9416

                     76                     77                     78
                      A                      A                      A
 Frequencies --   1170.7367              1171.3489              1183.6214
 Red. masses --      1.5288                 1.1019                 1.3876
 Frc consts  --      1.2346                 0.8908                 1.1454
 IR Inten    --     13.3119                 4.9572                60.6317

                     79                     80                     81
                      A                      A                      A
 Frequencies --   1206.6817              1210.0269              1217.5852
 Red. masses --      2.6805                 1.3802                 1.2140
 Frc consts  --      2.2996                 1.1907                 1.0604
 IR Inten    --    478.1773                11.9869                22.9121

                     82                     83                     84
                      A                      A                      A
 Frequencies --   1242.9274              1262.3330              1278.9081
 Red. masses --      2.7456                 1.6757                 1.5960
 Frc consts  --      2.4991                 1.5733                 1.5380
 IR Inten    --    152.3905               206.2233               110.7902

                     85                     86                     87
                      A                      A                      A
 Frequencies --   1287.5597              1311.9074              1321.4701
 Red. masses --      1.1040                 1.2117                 1.4142
 Frc consts  --      1.0783                 1.2287                 1.4550
 IR Inten    --      3.0082                69.1023                28.2280

                     88                     89                     90
                      A                      A                      A
 Frequencies --   1331.9887              1340.5748              1343.1151
 Red. masses --      1.3969                 2.5715                 1.2141
 Frc consts  --      1.4603                 2.7228                 1.2904
 IR Inten    --     38.3554                13.7437                51.2750

                     91                     92                     93
                      A                      A                      A
 Frequencies --   1364.8509              1365.8743              1376.3317
 Red. masses --      1.7968                 1.3599                 1.8646
 Frc consts  --      1.9721                 1.4948                 2.0811
 IR Inten    --      2.7630                53.7126               111.1802

                     94                     95                     96
                      A                      A                      A
 Frequencies --   1390.7117              1397.7542              1414.3298
 Red. masses --      1.4724                 1.1919                 1.6412
 Frc consts  --      1.6779                 1.3720                 1.9343
 IR Inten    --    138.2703                37.9796                32.3973

                     97                     98                     99
                      A                      A                      A
 Frequencies --   1431.2700              1441.1433              1466.1220
 Red. masses --      1.1855                 1.2594                 1.0398
 Frc consts  --      1.4309                 1.5410                 1.3168
 IR Inten    --      6.8734                48.5386                 4.9032

                    100                    101                    102
                      A                      A                      A
 Frequencies --   1469.0726              1474.4034              1477.7949
 Red. masses --      2.1148                 1.1654                 1.0524
 Frc consts  --      2.6892                 1.4926                 1.3541
 IR Inten    --     16.0655                18.5466                 2.6182

                    103                    104                    105
                      A                      A                      A
 Frequencies --   1486.0942              1489.1905              1502.3551
 Red. masses --      1.1270                 1.4711                 1.1765
 Frc consts  --      1.4664                 1.9222                 1.5645
 IR Inten    --     26.7224                20.3023                31.0880

                    106                    107                    108
                      A                      A                      A
 Frequencies --   1503.9454              1525.7610              1625.8133
 Red. masses --      1.0939                 2.1348                 5.6279
 Frc consts  --      1.4578                 2.9281                 8.7648
 IR Inten    --      6.4861                10.1355                 1.3652

                    109                    110                    111
                      A                      A                      A
 Frequencies --   1643.8734              1740.2448              2986.3751
 Red. masses --      5.7497                11.0350                 1.0532
 Frc consts  --      9.1544                19.6899                 5.5344
 IR Inten    --      0.8270               426.0899                53.5584

                    112                    113                    114
                      A                      A                      A
 Frequencies --   3002.0202              3039.4364              3058.1726
 Red. masses --      1.0461                 1.0353                 1.0890
 Frc consts  --      5.5545                 5.6350                 6.0006
 IR Inten    --     39.5196                28.0180                51.7645

                    115                    116                    117
                      A                      A                      A
 Frequencies --   3068.8355              3072.0518              3089.6046
 Red. masses --      1.0594                 1.0626                 1.0647
 Frc consts  --      5.8781                 5.9083                 5.9881
 IR Inten    --     30.3779                40.1914                41.8781

                    118                    119                    120
                      A                      A                      A
 Frequencies --   3103.7972              3111.7473              3114.1520
 Red. masses --      1.0732                 1.1035                 1.0865
 Frc consts  --      6.0913                 6.2958                 6.2082
 IR Inten    --     15.3457                20.0473                15.3771

                    121                    122                    123
                      A                      A                      A
 Frequencies --   3122.2933              3122.8420              3129.1564
 Red. masses --      1.1018                 1.1032                 1.0860
 Frc consts  --      6.3287                 6.3385                 6.2651
 IR Inten    --     17.6168                21.0860                12.0175

                    124                    125                    126
                      A                      A                      A
 Frequencies --   3137.5734              3155.5874              3174.7730
 Red. masses --      1.1075                 1.1012                 1.0856
 Frc consts  --      6.4237                 6.4607                 6.4466
 IR Inten    --     30.1344                19.6194                 0.1991

                    127                    128                    129
                      A                      A                      A
 Frequencies --   3175.2310              3176.0994              3183.8997
 Red. masses --      1.1037                 1.1049                 1.0905
 Frc consts  --      6.5562                 6.5671                 6.5130
 IR Inten    --      3.6001                12.5820                16.5635

                    130                    131                    132
                      A                      A                      A
 Frequencies --   3196.4241              3208.6068              3239.0231
 Red. masses --      1.0958                 1.0938                 1.0903
 Frc consts  --      6.5965                 6.6347                 6.7393
 IR Inten    --     31.4832                17.7090                 6.0812

 - Thermochemistry -
 -------------------
 Temperature   298.150 Kelvin.  Pressure   1.00000 Atm.
 Atom     1 has atomic number  6 and mass  12.00000

 Molecular mass:   434.99839 amu.
 Principal axes and moments of inertia in atomic units:
                           1         2         3
     Eigenvalues --  8903.47251********************
           X            0.99726   0.06833  -0.02841
           Y           -0.06914   0.99719  -0.02872
           Z            0.02637   0.03060   0.99918
 This molecule is an asymmetric top.
 Rotational symmetry number  1.
 Warning -- assumption of classical behavior for rotation
           may cause significant error
 Rotational temperatures (Kelvin)      0.00973     0.00792     0.00714
 Rotational constants (GHZ):           0.20270     0.16510     0.14872
    2 imaginary frequencies ignored.
 Zero-point vibrational energy     943373.4 (Joules/Mol)
                                  225.47166 (Kcal/Mol)
 Warning -- explicit consideration of  39 degrees of freedom as
           vibrations may cause significant error
 Vibrational temperatures:     65.00    73.49    77.61    94.66   105.86
          (Kelvin)            112.91   127.97   138.80   143.56   151.25
                              160.54   169.80   171.97   197.48   203.23
                              213.18   242.37   266.91   274.34   311.29
                              322.16   372.56   374.67   395.09   424.67
                              445.75   455.85   479.26   487.45   504.69
                              510.29   548.09   587.18   609.94   616.89
                              685.60   729.06   759.03   815.92   905.25
                              917.73   951.68  1000.24  1029.78  1059.11
                             1079.29  1146.00  1151.55  1168.75  1205.49
                             1230.47  1242.47  1244.38  1305.89  1325.75
                             1358.10  1375.21  1399.48  1432.47  1438.24
                             1441.50  1451.24  1456.19  1476.25  1491.80
                             1514.99  1522.05  1540.25  1570.08  1598.34
                             1627.59  1632.92  1674.82  1684.43  1685.31
                             1702.97  1736.15  1740.96  1751.83  1788.30
                             1816.22  1840.06  1852.51  1887.54  1901.30
                             1916.43  1928.79  1932.44  1963.72  1965.19
                             1980.23  2000.92  2011.06  2034.91  2059.28
                             2073.48  2109.42  2113.67  2121.34  2126.22
                             2138.16  2142.61  2161.55  2163.84  2195.23
                             2339.18  2365.17  2503.82  4296.73  4319.24
                             4373.07  4400.03  4415.37  4420.00  4445.25
                             4465.67  4477.11  4480.57  4492.28  4493.07
                             4502.16  4514.27  4540.19  4567.79  4568.45
                             4569.70  4580.92  4598.94  4616.47  4660.23

 Zero-point correction=                           0.359312 (Hartree/Particle)
 Thermal correction to Energy=                    0.385347
 Thermal correction to Enthalpy=                  0.386291
 Thermal correction to Gibbs Free Energy=         0.301472
 Sum of electronic and zero-point Energies=          -3531.204047
 Sum of electronic and thermal Energies=             -3531.178013
 Sum of electronic and thermal Enthalpies=           -3531.177068
 Sum of electronic and thermal Free Energies=        -3531.261887

                     E (Thermal)             CV                S
                      KCal/Mol        Cal/Mol-Kelvin    Cal/Mol-Kelvin
 Total                  241.809             94.976            178.515
 Electronic               0.000              0.000              3.561
 Translational            0.889              2.981             44.100
 Rotational               0.889              2.981             35.422
 Vibrational            240.031             89.015             95.432
 Vibration     1          0.595              1.979              5.018
 Vibration     2          0.595              1.977              4.775
 Vibration     3          0.596              1.976              4.667
 Vibration     4          0.597              1.971              4.276
 Vibration     5          0.599              1.966              4.055
 Vibration     6          0.600              1.964              3.929
 Vibration     7          0.602              1.957              3.683
 Vibration     8          0.603              1.952              3.524
 Vibration     9          0.604              1.949              3.459
 Vibration    10          0.605              1.945              3.357
 Vibration    11          0.607              1.940              3.241
 Vibration    12          0.608              1.934              3.133
 Vibration    13          0.609              1.933              3.108
 Vibration    14          0.614              1.916              2.842
 Vibration    15          0.615              1.912              2.787
 Vibration    16          0.618              1.905              2.696
 Vibration    17          0.625              1.881              2.453
 Vibration    18          0.632              1.860              2.272
 Vibration    19          0.634              1.853              2.221
 Vibration    20          0.645              1.816              1.989
 Vibration    21          0.649              1.805              1.927
 Vibration    22          0.668              1.748              1.669
 Vibration    23          0.668              1.745              1.659
 Vibration    24          0.677              1.720              1.567
 Vibration    25          0.689              1.683              1.444
 Vibration    26          0.699              1.655              1.363
 Vibration    27          0.704              1.641              1.326
 Vibration    28          0.715              1.609              1.245
 Vibration    29          0.719              1.598              1.218
 Vibration    30          0.728              1.574              1.163
 Vibration    31          0.731              1.566              1.145
 Vibration    32          0.751              1.511              1.035
 Vibration    33          0.773              1.453              0.933
 Vibration    34          0.786              1.418              0.879
 Vibration    35          0.790              1.408              0.863
 Vibration    36          0.833              1.302              0.720
 Vibration    37          0.862              1.235              0.642
 Vibration    38          0.883              1.189              0.593
 Vibration    39          0.923              1.102              0.510

 Optimization completed on the basis of negligible forces.
    -- Stationary point found.
 Normal termination of Gaussian 16 at Wed Jul 14 07:28:24 2021.
