 Gaussian 16, Revision A.03,
 Gaussian 16:  ES64L-G16RevA.03 25-Dec-2016

 ----------------------------------------------------------------------
 #p opt=(calcfc,ts,maxstep=5,noeigentest) freq=noraman b3lyp scrf=(solv
 ent=water,pcm) pop=none empiricaldispersion=gd3bj jul-cc-pvdz
 ----------------------------------------------------------------------

 -----
 title
 -----
 Symbolic Z-matrix:
 Charge =  0 Multiplicity = 6

 SCF Done:  E(UB3LYP) =  -3531.56240329     A.U. after   25 cycles
 SCF Done:  E(UB3LYP) =  -3531.56240393     A.U. after   11 cycles
 Optimization completed.
    -- Stationary point found.
 Normal termination of Gaussian 16 at Tue Jul 13 15:16:38 2021.

 ----------------------------------------------------------------------
 #P Geom=AllCheck Guess=TCheck SCRF=Check GenChk UB3LYP/Jul-CC-pVDZ Fre
 q
 ----------------------------------------------------------------------

 Structure from the checkpoint file:  "/scratch/kwaneu.3017185.bmbhpcps002/Gau-6792.chk"
 -----
 title
 -----
 Charge =  0 Multiplicity = 6

                         Standard orientation:
 ---------------------------------------------------------------------
 Center     Atomic      Atomic             Coordinates (Angstroms)
 Number     Number       Type             X           Y           Z
 ---------------------------------------------------------------------
      1          6           0        3.347902   -1.395133   -0.667335
      2          6           0        2.367536   -0.469496   -0.271298
      3          6           0        2.732922    0.874860   -0.132496
      4          6           0        4.043823    1.287673   -0.396724
      5          6           0        5.009317    0.362941   -0.797519
      6          6           0        4.654277   -0.984955   -0.930192
      7          6           0        0.953457   -0.941005    0.041849
      8          6           0        0.435375   -2.018695   -0.989912
      9          6           0        0.498175   -3.383718   -0.275863
     10          6           0        0.213843   -3.084599    1.201949
     11          6           0        0.951062   -1.770835    1.462530
     12          6           0        0.381827   -0.779648    2.381098
     13          6           0        1.265156    0.218188    2.984629
     14          8           0        0.066444    0.126987    0.187046
     15         26           0       -0.863676    1.661407   -0.164330
     16         17           0        0.044823    3.251885    1.189477
     17          6           0       -1.034149   -0.797030    2.750001
     18         17           0       -3.001869    1.447979    0.525584
     19         17           0       -0.728097    2.431008   -2.281211
     20          1           0        2.006311    1.613037    0.191825
     21          1           0        4.305525    2.340383   -0.283985
     22          1           0        6.030748    0.685008   -1.002927
     23          1           0        5.397299   -1.720545   -1.239774
     24          1           0        3.103656   -2.451088   -0.770821
     25          1           0        1.076352   -1.992489   -1.874493
     26          6           0       -0.954318   -1.680805   -1.500860
     27          1           0       -0.209601   -4.104925   -0.699563
     28          1           0        1.503734   -3.806817   -0.392884
     29          1           0       -0.863021   -2.980781    1.355765
     30          1           0        0.577556   -3.873441    1.870197
     31          1           0        2.000213   -1.947104    1.720851
     32          1           0       -1.668695   -1.101736    1.911382
     33          1           0       -1.126399   -1.593732    3.514769
     34          1           0       -1.368476    0.146650    3.188223
     35          1           0        1.339492   -0.068931    4.052654
     36          1           0        2.270329    0.228485    2.556076
     37          1           0        0.799317    1.212633    2.971344
     38          8           0       -1.921726   -1.980462   -0.626248
     39          8           0       -1.163926   -1.220527   -2.608121
     40          6           0       -3.293921   -1.755462   -1.060439
     41          6           0       -4.196939   -2.128874    0.093528
     42          1           0       -3.394756   -0.700583   -1.337606
     43          1           0       -3.472855   -2.376865   -1.947324
     44          1           0       -5.244157   -1.999288   -0.212999
     45          1           0       -4.048385   -3.176822    0.387554
     46          1           0       -4.009598   -1.480893    0.959755
 ---------------------------------------------------------------------

 SCF Done:  E(UB3LYP) =  -3531.56240393     A.U. after    2 cycles

 Isotropic polarizability for W=    0.000000      426.86 Bohr**3.
 End of Minotr F.D. properties file   721 does not exist.

 ******    1 imaginary frequencies (negative Signs) ******

                      1                      2                      3
                      A                      A                      A
 Frequencies --   -120.4973                33.1858                48.1167
 Red. masses --      3.1108                 4.5840                 9.1795
 Frc consts  --      0.0266                 0.0030                 0.0125
 IR Inten    --     15.5891                 1.7969                 0.3671

                      4                      5                      6
                      A                      A                      A
 Frequencies --     53.8178                54.6077                68.2105
 Red. masses --      5.3596                 5.8068                 5.8239
 Frc consts  --      0.0091                 0.0102                 0.0160
 IR Inten    --      1.9818                 1.7354                 0.5622

                      7                      8                      9
                      A                      A                      A
 Frequencies --     70.2964                75.4893                84.9670
 Red. masses --      7.8218                 5.5626                 4.1765
 Frc consts  --      0.0228                 0.0187                 0.0178
 IR Inten    --      6.4035                 5.7298                 1.9218

                     10                     11                     12
                      A                      A                      A
 Frequencies --     91.4872               101.8600               107.0832
 Red. masses --      5.1895                 2.3029                 4.5509
 Frc consts  --      0.0256                 0.0141                 0.0307
 IR Inten    --     19.0337                 4.9943                13.9687

                     13                     14                     15
                      A                      A                      A
 Frequencies --    110.3100               120.1985               125.4269
 Red. masses --      6.0874                 3.3687                 3.6652
 Frc consts  --      0.0436                 0.0287                 0.0340
 IR Inten    --      2.1390                 0.2995                 3.6119

                     16                     17                     18
                      A                      A                      A
 Frequencies --    129.1747               134.3658               141.5782
 Red. masses --      3.0290                10.1233                 4.5615
 Frc consts  --      0.0298                 0.1077                 0.0539
 IR Inten    --      7.5962                 1.6308                 9.5138

                     19                     20                     21
                      A                      A                      A
 Frequencies --    166.5763               185.9306               196.5441
 Red. masses --      2.0399                 2.5463                 2.8908
 Frc consts  --      0.0333                 0.0519                 0.0658
 IR Inten    --     10.0420                 8.4359                 3.9119

                     22                     23                     24
                      A                      A                      A
 Frequencies --    209.7934               233.6585               254.3781
 Red. masses --      2.1219                 2.9545                 6.4488
 Frc consts  --      0.0550                 0.0950                 0.2459
 IR Inten    --     42.2814                 1.5376                17.1324

                     25                     26                     27
                      A                      A                      A
 Frequencies --    265.9066               279.4547               291.2294
 Red. masses --      1.7127                 3.6678                 3.5406
 Frc consts  --      0.0714                 0.1688                 0.1769
 IR Inten    --      6.4375                12.2974                10.5296

                     28                     29                     30
                      A                      A                      A
 Frequencies --    309.9070               315.7920               322.1668
 Red. masses --      3.4559                 3.2729                16.9220
 Frc consts  --      0.1956                 0.1923                 1.0348
 IR Inten    --      4.1812                 6.8731               136.0682

                     31                     32                     33
                      A                      A                      A
 Frequencies --    339.2650               354.8454               364.8420
 Red. masses --     12.7666                37.4480                 4.8787
 Frc consts  --      0.8658                 2.7782                 0.3826
 IR Inten    --    153.5991               199.5372                38.9960

                     34                     35                     36
                      A                      A                      A
 Frequencies --    379.1099               414.6201               423.6981
 Red. masses --      3.3495                 3.2484                 3.0668
 Frc consts  --      0.2836                 0.3290                 0.3244
 IR Inten    --     21.3130                 3.6717                 0.0908

                     37                     38                     39
                      A                      A                      A
 Frequencies --    434.3012               481.6032               509.1341
 Red. masses --      4.3465                 3.0126                 3.0980
 Frc consts  --      0.4830                 0.4117                 0.4731
 IR Inten    --      6.3924                 4.7246                13.1952

                     40                     41                     42
                      A                      A                      A
 Frequencies --    526.2199               573.1927               628.0700
 Red. masses --      2.7235                 3.5658                 4.3922
 Frc consts  --      0.4443                 0.6903                 1.0208
 IR Inten    --     13.2771                18.7909                 3.7852

                     43                     44                     45
                      A                      A                      A
 Frequencies --    633.4965               672.5303               700.0330
 Red. masses --      3.9160                 3.7354                 4.8582
 Frc consts  --      0.9259                 0.9954                 1.4027
 IR Inten    --     14.3973                58.1517               114.3969

                     46                     47                     48
                      A                      A                      A
 Frequencies --    708.1935               719.2440               752.5246
 Red. masses --      4.5026                 1.6020                 2.8728
 Frc consts  --      1.3305                 0.4883                 0.9585
 IR Inten    --     23.0643                89.3009                69.9945

                     49                     50                     51
                      A                      A                      A
 Frequencies --    780.3721               801.4192               810.9571
 Red. masses --      1.2674                 1.9368                 1.5520
 Frc consts  --      0.4548                 0.7329                 0.6014
 IR Inten    --     12.5168                15.5128                15.7838

                     52                     53                     54
                      A                      A                      A
 Frequencies --    835.4913               858.2540               864.6801
 Red. masses --      2.8709                 1.2953                 2.7797
 Frc consts  --      1.1808                 0.5622                 1.2245
 IR Inten    --     11.3920                 1.2463                33.2923

                     55                     56                     57
                      A                      A                      A
 Frequencies --    866.1994               908.2326               924.4068
 Red. masses --      2.4442                 5.3491                 2.8885
 Frc consts  --      1.0805                 2.5997                 1.4543
 IR Inten    --     10.8523                55.7566                43.0504

                     58                     59                     60
                      A                      A                      A
 Frequencies --    946.7270               956.9429               972.4212
 Red. masses --      1.6486                 1.9421                 2.4567
 Frc consts  --      0.8706                 1.0478                 1.3687
 IR Inten    --      5.7887                14.5171                65.6751

                     61                     62                     63
                      A                      A                      A
 Frequencies --    996.1873               998.0363              1007.2358
 Red. masses --      1.4690                 2.5190                 3.0771
 Frc consts  --      0.8589                 1.4783                 1.8393
 IR Inten    --      4.2539                36.2372                 3.5881

                     64                     65                     66
                      A                      A                      A
 Frequencies --   1007.8801              1014.1635              1032.7130
 Red. masses --      1.5891                 1.8186                 1.4379
 Frc consts  --      0.9511                 1.1021                 0.9036
 IR Inten    --     40.9344                50.1274                11.8070

                     67                     68                     69
                      A                      A                      A
 Frequencies --   1038.5770              1045.7384              1055.6117
 Red. masses --      2.2901                 2.1034                 2.2759
 Frc consts  --      1.4554                 1.3552                 1.4942
 IR Inten    --     51.5594                48.0524                21.3080

                     70                     71                     72
                      A                      A                      A
 Frequencies --   1066.5027              1092.3957              1110.4532
 Red. masses --      2.3248                 2.5783                 2.0157
 Frc consts  --      1.5580                 1.8127                 1.4645
 IR Inten    --    123.3102               154.4996               124.7647

                     73                     74                     75
                      A                      A                      A
 Frequencies --   1130.7133              1132.6219              1160.1594
 Red. masses --      1.9888                 2.1430                 1.6451
 Frc consts  --      1.4981                 1.6197                 1.3046
 IR Inten    --     51.8274                67.3698                38.9564

                     76                     77                     78
                      A                      A                      A
 Frequencies --   1167.2703              1170.8344              1176.6388
 Red. masses --      1.5492                 1.1012                 1.5116
 Frc consts  --      1.2437                 0.8895                 1.2331
 IR Inten    --      5.1467                16.1727               147.5997

                     79                     80                     81
                      A                      A                      A
 Frequencies --   1206.9615              1213.9964              1231.1941
 Red. masses --      1.5895                 1.1479                 2.4080
 Frc consts  --      1.3642                 0.9968                 2.1506
 IR Inten    --     20.3131                 0.3338                56.9359

                     82                     83                     84
                      A                      A                      A
 Frequencies --   1265.9771              1275.9712              1285.2787
 Red. masses --      1.6950                 1.7323                 1.1052
 Frc consts  --      1.6005                 1.6617                 1.0757
 IR Inten    --    169.4067                27.3225                 5.8827

                     85                     86                     87
                      A                      A                      A
 Frequencies --   1294.6739              1314.0975              1319.4712
 Red. masses --      2.2980                 1.2180                 1.3619
 Frc consts  --      2.2694                 1.2392                 1.3970
 IR Inten    --    533.6341                76.1491                25.5867

                     88                     89                     90
                      A                      A                      A
 Frequencies --   1332.9855              1339.3796              1342.2356
 Red. masses --      1.4535                 1.2507                 2.2438
 Frc consts  --      1.5216                 1.3219                 2.3817
 IR Inten    --      6.6429                28.6584                 3.1066

                     91                     92                     93
                      A                      A                      A
 Frequencies --   1350.6512              1365.0255              1367.6831
 Red. masses --      1.3988                 1.9997                 1.6699
 Frc consts  --      1.5035                 2.1953                 1.8404
 IR Inten    --     45.1914                14.0466               117.9875

                     94                     95                     96
                      A                      A                      A
 Frequencies --   1379.0230              1402.8104              1411.1652
 Red. masses --      1.3338                 1.1816                 1.4774
 Frc consts  --      1.4944                 1.3699                 1.7335
 IR Inten    --     30.4761                57.7180                 3.8018

                     97                     98                     99
                      A                      A                      A
 Frequencies --   1428.4905              1446.3165              1468.7192
 Red. masses --      1.1646                 1.4523                 1.0631
 Frc consts  --      1.4002                 1.7900                 1.3512
 IR Inten    --     13.6235                66.6708                 6.9862

                    100                    101                    102
                      A                      A                      A
 Frequencies --   1469.6284              1474.0209              1478.6761
 Red. masses --      2.1765                 1.0504                 1.1285
 Frc consts  --      2.7696                 1.3447                 1.4538
 IR Inten    --     22.4006                 5.7051                18.4145

                    103                    104                    105
                      A                      A                      A
 Frequencies --   1490.6668              1492.6474              1496.5861
 Red. masses --      1.1803                 1.3585                 1.1007
 Frc consts  --      1.5452                 1.7833                 1.4525
 IR Inten    --     22.8979                19.8933                19.4281

                    106                    107                    108
                      A                      A                      A
 Frequencies --   1503.3978              1525.6923              1626.5083
 Red. masses --      1.1768                 2.1205                 5.6387
 Frc consts  --      1.5671                 2.9082                 8.7890
 IR Inten    --     12.3047                13.5137                 0.0743

                    109                    110                    111
                      A                      A                      A
 Frequencies --   1643.9603              1740.0694              2987.0867
 Red. masses --      5.7249                11.1401                 1.0530
 Frc consts  --      9.1160                19.8733                 5.5355
 IR Inten    --      1.4402               518.6425                56.1860

                    112                    113                    114
                      A                      A                      A
 Frequencies --   2996.4557              3041.0448              3070.7362
 Red. masses --      1.0551                 1.0351                 1.0629
 Frc consts  --      5.5818                 5.6400                 5.9049
 IR Inten    --     34.9967                23.9888                38.2075

                    115                    116                    117
                      A                      A                      A
 Frequencies --   3071.1508              3083.3477              3089.8892
 Red. masses --      1.0608                 1.0776                 1.0657
 Frc consts  --      5.8950                 6.0362                 5.9947
 IR Inten    --     35.6794                23.4336                40.7498

                    118                    119                    120
                      A                      A                      A
 Frequencies --   3103.0354              3109.9085              3115.2440
 Red. masses --      1.0850                 1.0725                 1.1030
 Frc consts  --      6.1556                 6.1113                 6.3069
 IR Inten    --      7.6335                15.0034                15.8621

                    121                    122                    123
                      A                      A                      A
 Frequencies --   3121.5107              3121.7159              3131.0357
 Red. masses --      1.1030                 1.1008                 1.0864
 Frc consts  --      6.3321                 6.3204                 6.2750
 IR Inten    --     32.1699                22.8213                12.4634

                    124                    125                    126
                      A                      A                      A
 Frequencies --   3140.9582              3156.4432              3174.4414
 Red. masses --      1.1071                 1.1002                 1.0857
 Frc consts  --      6.4351                 6.4581                 6.4462
 IR Inten    --     44.8393                20.0335                 0.1575

                    127                    128                    129
                      A                      A                      A
 Frequencies --   3174.7477              3183.0834              3183.3869
 Red. masses --      1.1039                 1.1065                 1.0902
 Frc consts  --      6.5555                 6.6051                 6.5096
 IR Inten    --      5.2333                 7.2640                15.3300

                    130                    131                    132
                      A                      A                      A
 Frequencies --   3195.3949              3204.3074              3248.2855
 Red. masses --      1.0945                 1.0955                 1.0891
 Frc consts  --      6.5846                 6.6270                 6.7708
 IR Inten    --     31.5839                20.4684                10.3285

 - Thermochemistry -
 -------------------
 Temperature   298.150 Kelvin.  Pressure   1.00000 Atm.
 Atom     1 has atomic number  6 and mass  12.00000

 Molecular mass:   434.99839 amu.
 Principal axes and moments of inertia in atomic units:
                           1         2         3
     Eigenvalues --  8489.18939********************
           X            0.99696   0.07779  -0.00491
           Y           -0.07782   0.99696  -0.00456
           Z            0.00454   0.00492   0.99998
 This molecule is an asymmetric top.
 Rotational symmetry number  1.
 Warning -- assumption of classical behavior for rotation
           may cause significant error
 Rotational temperatures (Kelvin)      0.01020     0.00821     0.00660
 Rotational constants (GHZ):           0.21259     0.17109     0.13744
    1 imaginary frequencies ignored.
 Zero-point vibrational energy     943934.0 (Joules/Mol)
                                  225.60564 (Kcal/Mol)
 Warning -- explicit consideration of  40 degrees of freedom as
           vibrations may cause significant error
 Vibrational temperatures:     47.75    69.23    77.43    78.57    98.14
          (Kelvin)            101.14   108.61   122.25   131.63   146.55
                              154.07   158.71   172.94   180.46   185.85
                              193.32   203.70   239.67   267.51   282.78
                              301.85   336.18   365.99   382.58   402.07
                              419.01   445.89   454.35   463.53   488.13
                              510.54   524.93   545.45   596.55   609.61
                              624.86   692.92   732.53   757.11   824.70
                              903.65   911.46   967.62  1007.19  1018.93
                             1034.83  1082.72  1122.78  1153.06  1166.79
                             1202.09  1234.84  1244.08  1246.27  1306.74
                             1330.02  1362.13  1376.83  1399.10  1433.29
                             1435.95  1449.19  1450.11  1459.16  1485.84
                             1494.28  1504.58  1518.79  1534.46  1571.71
                             1597.69  1626.84  1629.59  1669.21  1679.44
                             1684.57  1692.92  1736.55  1746.67  1771.41
                             1821.46  1835.84  1849.23  1862.75  1890.69
                             1898.42  1917.87  1927.07  1931.18  1943.29
                             1963.97  1967.79  1984.11  2018.33  2030.35
                             2055.28  2080.93  2113.16  2114.47  2120.79
                             2127.49  2144.74  2147.59  2153.25  2163.05
                             2195.13  2340.18  2365.29  2503.57  4297.75
                             4311.23  4375.39  4418.10  4418.70  4436.25
                             4445.66  4464.58  4474.46  4482.14  4491.16
                             4491.45  4504.86  4519.14  4541.42  4567.31
                             4567.75  4579.75  4580.18  4597.46  4610.28
                             4673.56

 Zero-point correction=                           0.359525 (Hartree/Particle)
 Thermal correction to Energy=                    0.386433
 Thermal correction to Enthalpy=                  0.387377
 Thermal correction to Gibbs Free Energy=         0.299872
 Sum of electronic and zero-point Energies=          -3531.202878
 Sum of electronic and thermal Energies=             -3531.175971
 Sum of electronic and thermal Enthalpies=           -3531.175027
 Sum of electronic and thermal Free Energies=        -3531.262532

                     E (Thermal)             CV                S
                      KCal/Mol        Cal/Mol-Kelvin    Cal/Mol-Kelvin
 Total                  242.490             96.926            184.170
 Electronic               0.000              0.000              3.561
 Translational            0.889              2.981             44.100
 Rotational               0.889              2.981             35.418
 Vibrational            240.713             90.964            101.091
 Vibration     1          0.594              1.983              5.629
 Vibration     2          0.595              1.978              4.893
 Vibration     3          0.596              1.976              4.672
 Vibration     4          0.596              1.976              4.643
 Vibration     5          0.598              1.969              4.204
 Vibration     6          0.598              1.968              4.145
 Vibration     7          0.599              1.965              4.005
 Vibration     8          0.601              1.960              3.773
 Vibration     9          0.602              1.955              3.628
 Vibration    10          0.604              1.948              3.418
 Vibration    11          0.606              1.944              3.321
 Vibration    12          0.606              1.941              3.263
 Vibration    13          0.609              1.932              3.097
 Vibration    14          0.610              1.928              3.015
 Vibration    15          0.612              1.924              2.958
 Vibration    16          0.613              1.919              2.883
 Vibration    17          0.615              1.912              2.782
 Vibration    18          0.624              1.884              2.474
 Vibration    19          0.632              1.859              2.268
 Vibration    20          0.636              1.845              2.165
 Vibration    21          0.642              1.826              2.045
 Vibration    22          0.654              1.789              1.851
 Vibration    23          0.665              1.755              1.700
 Vibration    24          0.672              1.736              1.623
 Vibration    25          0.680              1.712              1.537
 Vibration    26          0.687              1.690              1.467
 Vibration    27          0.699              1.655              1.363
 Vibration    28          0.703              1.643              1.332
 Vibration    29          0.707              1.631              1.299
 Vibration    30          0.719              1.597              1.216
 Vibration    31          0.731              1.565              1.145
 Vibration    32          0.738              1.545              1.101
 Vibration    33          0.749              1.515              1.043
 Vibration    34          0.778              1.438              0.910
 Vibration    35          0.786              1.419              0.879
 Vibration    36          0.795              1.395              0.845
 Vibration    37          0.838              1.291              0.706
 Vibration    38          0.864              1.230              0.636
 Vibration    39          0.881              1.192              0.596
 Vibration    40          0.929              1.089              0.498

 Optimization completed.
    -- Stationary point found.
 Normal termination of Gaussian 16 at Tue Jul 13 18:28:16 2021.
