 Gaussian 16, Revision A.03,
 Gaussian 16:  ES64L-G16RevA.03 25-Dec-2016

 ----------------------------------------------------------------------
 #p opt=(ts,noeigentest,calcfc,maxstep=5) freq=noraman scrf=(pcm,solven
 t=water) b3lyp jul-cc-pvdz pop=none empiricaldispersion=gd3bj
 ----------------------------------------------------------------------

 -----
 title
 -----
 Symbolic Z-matrix:
 Charge =  0 Multiplicity = 6

 SCF Done:  E(UB3LYP) =  -3531.56764798     A.U. after   24 cycles
 Optimization completed.
    -- Stationary point found.
 Normal termination of Gaussian 16 at Mon Jul 12 18:10:41 2021.

 ----------------------------------------------------------------------
 #P Geom=AllCheck Guess=TCheck SCRF=Check GenChk UB3LYP/Jul-CC-pVDZ Fre
 q
 ----------------------------------------------------------------------

 Structure from the checkpoint file:  "/scratch/kwaneu.3016960.bmbhpcps002/Gau-19746.chk"
 -----
 title
 -----
 Charge =  0 Multiplicity = 6

                         Standard orientation:
 ---------------------------------------------------------------------
 Center     Atomic      Atomic             Coordinates (Angstroms)
 Number     Number       Type             X           Y           Z
 ---------------------------------------------------------------------
      1          6           0        2.886076    1.159293   -0.303442
      2          6           0        1.583574    0.766218   -0.651340
      3          6           0        1.367547    0.168304   -1.897794
      4          6           0        2.432383   -0.037575   -2.780207
      5          6           0        3.726310    0.348635   -2.425104
      6          6           0        3.949613    0.948257   -1.179753
      7          6           0        0.428953    0.989996    0.311495
      8          6           0        0.664783    0.426173    1.768678
      9          6           0        0.958777    1.612776    2.684793
     10          6           0        0.040138    2.706436    2.129381
     11          6           0        0.252072    2.594989    0.620405
     12          6           0       -0.796302    2.992994   -0.317079
     13          6           0       -0.420391    3.277694   -1.701738
     14          8           0       -0.773294    0.540935   -0.235948
     15         26           0       -1.953231   -0.867249   -0.253355
     16         17           0       -1.183108   -2.685433   -1.351974
     17          6           0       -2.185001    3.164050    0.109917
     18         17           0       -3.785544   -0.095484   -1.338274
     19         17           0       -2.563047   -1.398780    1.864164
     20          1           0        0.364856   -0.147071   -2.171951
     21          1           0        2.246366   -0.505924   -3.747168
     22          1           0        4.557729    0.185994   -3.111695
     23          1           0        4.955368    1.253855   -0.890409
     24          1           0        3.082447    1.630147    0.658553
     25          1           0       -0.302776   -0.004396    2.052055
     26          6           0        1.669668   -0.702107    1.818791
     27          1           0        0.750007    1.376465    3.734426
     28          1           0        2.013136    1.909617    2.615076
     29          1           0       -0.998618    2.491389    2.407821
     30          1           0        0.286735    3.710535    2.492898
     31          1           0        1.196520    3.064484    0.324943
     32          1           0       -2.885226    3.227647   -0.726090
     33          1           0       -2.480523    2.387575    0.825206
     34          1           0       -2.208665    4.115678    0.677364
     35          1           0       -0.272617    4.378065   -1.721740
     36          1           0        0.535117    2.825063   -1.987343
     37          1           0       -1.225363    3.052983   -2.409045
     38          8           0        1.213906   -1.754271    1.126934
     39          8           0        2.731795   -0.672715    2.412444
     40          6           0        2.085972   -2.910292    0.985800
     41          6           0        3.025713   -2.733847   -0.191872
     42          1           0        2.626452   -3.056833    1.927770
     43          1           0        1.392009   -3.743242    0.829326
     44          1           0        3.638428   -3.639867   -0.302750
     45          1           0        2.460222   -2.576302   -1.118413
     46          1           0        3.692713   -1.876088   -0.041196
 ---------------------------------------------------------------------

 SCF Done:  E(UB3LYP) =  -3531.56764798     A.U. after    2 cycles

 Isotropic polarizability for W=    0.000000      427.30 Bohr**3.
 End of Minotr F.D. properties file   721 does not exist.

 ******    1 imaginary frequencies (negative Signs) ******

                      1                      2                      3
                      A                      A                      A
 Frequencies --    -64.9138                38.4959                43.3219
 Red. masses --      3.1778                 6.9289                 3.9557
 Frc consts  --      0.0079                 0.0060                 0.0044
 IR Inten    --     12.9393                 1.9726                 1.1631

                      4                      5                      6
                      A                      A                      A
 Frequencies --     47.0862                50.2709                63.9285
 Red. masses --      5.2009                 6.0145                 3.7570
 Frc consts  --      0.0068                 0.0090                 0.0090
 IR Inten    --      0.6691                 1.3532                 3.1469

                      7                      8                      9
                      A                      A                      A
 Frequencies --     70.7125                77.0551                85.0430
 Red. masses --      6.3858                 5.2970                 2.6344
 Frc consts  --      0.0188                 0.0185                 0.0112
 IR Inten    --      2.4793                 2.1792                 2.5596

                     10                     11                     12
                      A                      A                      A
 Frequencies --     88.0723                93.9054               100.9513
 Red. masses --      7.0659                 2.5652                 6.2381
 Frc consts  --      0.0323                 0.0133                 0.0375
 IR Inten    --      3.7858                 4.3594                 8.1993

                     13                     14                     15
                      A                      A                      A
 Frequencies --    104.5021               107.9786               109.4922
 Red. masses --      6.6367                 2.8761                 2.7989
 Frc consts  --      0.0427                 0.0198                 0.0198
 IR Inten    --      4.8720                 2.7689                 3.1853

                     16                     17                     18
                      A                      A                      A
 Frequencies --    121.9125               122.4153               139.2272
 Red. masses --     12.7982                 4.0330                 2.9155
 Frc consts  --      0.1121                 0.0356                 0.0333
 IR Inten    --      7.0189                 2.9364                 1.1234

                     19                     20                     21
                      A                      A                      A
 Frequencies --    153.9441               179.2842               206.0134
 Red. masses --      4.3529                 2.2023                 2.1250
 Frc consts  --      0.0608                 0.0417                 0.0531
 IR Inten    --      4.1645                21.1639                17.1149

                     22                     23                     24
                      A                      A                      A
 Frequencies --    206.6620               221.8928               262.4917
 Red. masses --      3.5667                 1.6831                 3.7415
 Frc consts  --      0.0898                 0.0488                 0.1519
 IR Inten    --      4.2678                25.7381                 8.3340

                     25                     26                     27
                      A                      A                      A
 Frequencies --    265.4490               285.1261               306.3598
 Red. masses --      2.9952                 7.6492                 2.5651
 Frc consts  --      0.1243                 0.3664                 0.1418
 IR Inten    --     10.6156                 2.7210                 6.6530

                     28                     29                     30
                      A                      A                      A
 Frequencies --    316.9863               324.7113               340.2812
 Red. masses --      4.4135                 3.9904                36.7964
 Frc consts  --      0.2613                 0.2479                 2.5103
 IR Inten    --     64.7964                10.1427               201.1334

                     31                     32                     33
                      A                      A                      A
 Frequencies --    344.7959               349.5683               361.6155
 Red. masses --      5.2684                31.5907                 6.2228
 Frc consts  --      0.3690                 2.2744                 0.4794
 IR Inten    --     59.2088               205.4840                80.9081

                     34                     35                     36
                      A                      A                      A
 Frequencies --    381.7921               412.7146               424.8815
 Red. masses --      3.7759                 2.8913                 3.7269
 Frc consts  --      0.3243                 0.2902                 0.3964
 IR Inten    --      3.9513                 0.3151                16.6139

                     37                     38                     39
                      A                      A                      A
 Frequencies --    457.8361               483.9027               500.1980
 Red. masses --      3.4707                 3.2385                 2.8287
 Frc consts  --      0.4286                 0.4468                 0.4170
 IR Inten    --      2.5517                 9.0587                12.0299

                     40                     41                     42
                      A                      A                      A
 Frequencies --    540.1602               555.6525               593.3184
 Red. masses --      2.9249                 3.0603                 3.4121
 Frc consts  --      0.5028                 0.5567                 0.7077
 IR Inten    --     14.2470                17.8884                40.7868

                     43                     44                     45
                      A                      A                      A
 Frequencies --    629.0157               642.5850               703.7004
 Red. masses --      6.1121                 3.9203                 1.7342
 Frc consts  --      1.4248                 0.9537                 0.5060
 IR Inten    --      0.8175                11.2827                74.4943

                     46                     47                     48
                      A                      A                      A
 Frequencies --    706.2275               718.8016               749.4486
 Red. masses --      3.5674                 3.1672                 1.2486
 Frc consts  --      1.0483                 0.9642                 0.4132
 IR Inten    --     39.0299               188.2912                17.0393

                     49                     50                     51
                      A                      A                      A
 Frequencies --    755.0264               772.5834               804.0138
 Red. masses --      2.3294                 3.6020                 1.4976
 Frc consts  --      0.7824                 1.2667                 0.5704
 IR Inten    --     20.0755                55.0327                26.9732

                     52                     53                     54
                      A                      A                      A
 Frequencies --    834.2582               846.5882               860.8255
 Red. masses --      2.9690                 1.2641                 2.8094
 Frc consts  --      1.2175                 0.5338                 1.2266
 IR Inten    --     24.5096                 3.4255                31.6515

                     55                     56                     57
                      A                      A                      A
 Frequencies --    871.4020               891.0007               930.3669
 Red. masses --      3.2872                 1.9469                 2.1934
 Frc consts  --      1.4707                 0.9106                 1.1186
 IR Inten    --    107.8254                 6.6087                 7.6995

                     58                     59                     60
                      A                      A                      A
 Frequencies --    935.6178               958.4705               985.7519
 Red. masses --      1.8522                 2.2300                 1.5310
 Frc consts  --      0.9553                 1.2070                 0.8765
 IR Inten    --     25.9264                39.0316                20.2856

                     61                     62                     63
                      A                      A                      A
 Frequencies --    987.1174              1000.8786              1003.1078
 Red. masses --      1.8307                 2.1590                 1.4601
 Frc consts  --      1.0510                 1.2743                 0.8656
 IR Inten    --     22.9914                61.1262                11.4663

                     64                     65                     66
                      A                      A                      A
 Frequencies --   1011.6980              1015.0785              1022.9905
 Red. masses --      3.6187                 2.1213                 1.4141
 Frc consts  --      2.1822                 1.2878                 0.8719
 IR Inten    --     28.1313                25.2721                 3.8304

                     67                     68                     69
                      A                      A                      A
 Frequencies --   1040.4068              1047.8255              1053.2521
 Red. masses --      3.4660                 2.2231                 2.0298
 Frc consts  --      2.2105                 1.4381                 1.3267
 IR Inten    --     59.5736                93.1736                30.6100

                     70                     71                     72
                      A                      A                      A
 Frequencies --   1065.3109              1101.5753              1110.2729
 Red. masses --      2.6659                 1.8773                 2.0389
 Frc consts  --      1.7826                 1.3422                 1.4808
 IR Inten    --     60.0718               100.8632                24.5750

                     73                     74                     75
                      A                      A                      A
 Frequencies --   1118.6318              1129.8486              1160.8546
 Red. masses --      2.0356                 2.7986                 1.4233
 Frc consts  --      1.5008                 2.1049                 1.1301
 IR Inten    --    143.3696                11.6999                88.3907

                     76                     77                     78
                      A                      A                      A
 Frequencies --   1163.2911              1168.6777              1182.7283
 Red. masses --      1.8232                 1.0808                 1.7997
 Frc consts  --      1.4537                 0.8697                 1.4833
 IR Inten    --    146.0663                 0.6616                 3.8985

                     79                     80                     81
                      A                      A                      A
 Frequencies --   1198.7327              1204.3501              1229.4263
 Red. masses --      1.1406                 2.2436                 1.7654
 Frc consts  --      0.9657                 1.9173                 1.5722
 IR Inten    --      9.5480               149.3106               222.9975

                     82                     83                     84
                      A                      A                      A
 Frequencies --   1240.4724              1262.9902              1308.2343
 Red. masses --      2.2307                 1.7477                 1.2871
 Frc consts  --      2.0224                 1.6425                 1.2978
 IR Inten    --    186.2827                80.3389                 7.0369

                     85                     86                     87
                      A                      A                      A
 Frequencies --   1312.7215              1315.4844              1318.5131
 Red. masses --      1.2427                 1.2112                 1.5048
 Frc consts  --      1.2617                 1.2349                 1.5414
 IR Inten    --     52.8992                67.4466               143.1456

                     88                     89                     90
                      A                      A                      A
 Frequencies --   1325.8044              1336.1035              1339.3501
 Red. masses --      1.2954                 1.6232                 1.3603
 Frc consts  --      1.3416                 1.7073                 1.4378
 IR Inten    --     13.2856                19.9661                76.2345

                     91                     92                     93
                      A                      A                      A
 Frequencies --   1348.2881              1360.1643              1370.5947
 Red. masses --      1.4088                 3.5619                 1.3251
 Frc consts  --      1.5089                 3.8825                 1.4666
 IR Inten    --    146.9188                 1.1128                 9.7309

                     94                     95                     96
                      A                      A                      A
 Frequencies --   1389.7211              1403.8919              1407.7243
 Red. masses --      1.4650                 1.1647                 1.4856
 Frc consts  --      1.6670                 1.3525                 1.7345
 IR Inten    --     69.1243                35.7562                34.9775

                     97                     98                     99
                      A                      A                      A
 Frequencies --   1420.3976              1452.8033              1466.4228
 Red. masses --      1.2229                 1.7037                 1.0613
 Frc consts  --      1.4536                 2.1186                 1.3446
 IR Inten    --     24.6498                74.3917                 6.6687

                    100                    101                    102
                      A                      A                      A
 Frequencies --   1467.9531              1471.8930              1479.6269
 Red. masses --      1.0788                 2.1878                 1.1172
 Frc consts  --      1.3697                 2.7926                 1.4411
 IR Inten    --      2.0751                43.1686                17.1064

                    103                    104                    105
                      A                      A                      A
 Frequencies --   1485.2657              1492.5494              1496.2375
 Red. masses --      1.0775                 1.2049                 1.2974
 Frc consts  --      1.4004                 1.5814                 1.7113
 IR Inten    --     32.5228                25.3750                26.3976

                    106                    107                    108
                      A                      A                      A
 Frequencies --   1501.5599              1520.7492              1625.4510
 Red. masses --      1.2328                 2.1628                 5.9364
 Frc consts  --      1.6376                 2.9470                 9.2411
 IR Inten    --      7.8800                11.4782                 1.2509

                    109                    110                    111
                      A                      A                      A
 Frequencies --   1645.2786              1742.0282              2976.8337
 Red. masses --      5.8331                11.4902                 1.0562
 Frc consts  --      9.3031                20.5441                 5.5146
 IR Inten    --      2.0875               551.5096                63.3448

                    112                    113                    114
                      A                      A                      A
 Frequencies --   2992.6122              3045.3340              3069.6507
 Red. masses --      1.0567                 1.0364                 1.0623
 Frc consts  --      5.5756                 5.6629                 5.8978
 IR Inten    --     50.1050                20.2310                41.5690

                    115                    116                    117
                      A                      A                      A
 Frequencies --   3071.4394              3084.5319              3085.5159
 Red. masses --      1.0622                 1.0652                 1.0753
 Frc consts  --      5.9038                 5.9713                 6.0317
 IR Inten    --     27.8046                21.4219                28.9784

                    118                    119                    120
                      A                      A                      A
 Frequencies --   3096.6531              3098.9463              3104.4426
 Red. masses --      1.0709                 1.0834                 1.0733
 Frc consts  --      6.0506                 6.1303                 6.0943
 IR Inten    --     12.8969                15.6011                 5.0544

                    121                    122                    123
                      A                      A                      A
 Frequencies --   3120.1522              3122.8777              3129.2150
 Red. masses --      1.1032                 1.0988                 1.1047
 Frc consts  --      6.3279                 6.3136                 6.3731
 IR Inten    --     22.1053                44.6477                 1.4893

                    124                    125                    126
                      A                      A                      A
 Frequencies --   3129.8287              3151.4826              3171.1666
 Red. masses --      1.1055                 1.1085                 1.1082
 Frc consts  --      6.3806                 6.4864                 6.5662
 IR Inten    --     36.0726                35.1836                 4.7459

                    127                    128                    129
                      A                      A                      A
 Frequencies --   3174.5134              3183.5436              3184.9038
 Red. masses --      1.0857                 1.0899                 1.1054
 Frc consts  --      6.4463                 6.5082                 6.6064
 IR Inten    --      0.2895                15.1709                10.4682

                    130                    131                    132
                      A                      A                      A
 Frequencies --   3194.7891              3203.6988              3234.5494
 Red. masses --      1.0943                 1.0960                 1.0910
 Frc consts  --      6.5805                 6.6274                 6.7251
 IR Inten    --     33.3540                16.0420                 3.5545

 - Thermochemistry -
 -------------------
 Temperature   298.150 Kelvin.  Pressure   1.00000 Atm.
 Atom     1 has atomic number  6 and mass  12.00000

 Molecular mass:   434.99839 amu.
 Principal axes and moments of inertia in atomic units:
                           1         2         3
     Eigenvalues --  8330.44622********************
           X            0.99670  -0.07933  -0.01740
           Y            0.07950   0.99679   0.00953
           Z            0.01659  -0.01088   0.99980
 This molecule is an asymmetric top.
 Rotational symmetry number  1.
 Warning -- assumption of classical behavior for rotation
           may cause significant error
 Rotational temperatures (Kelvin)      0.01040     0.00784     0.00690
 Rotational constants (GHZ):           0.21664     0.16342     0.14374
    1 imaginary frequencies ignored.
 Zero-point vibrational energy     941979.7 (Joules/Mol)
                                  225.13855 (Kcal/Mol)
 Warning -- explicit consideration of  41 degrees of freedom as
           vibrations may cause significant error
 Vibrational temperatures:     55.39    62.33    67.75    72.33    91.98
          (Kelvin)            101.74   110.87   122.36   126.72   135.11
                              145.25   150.36   155.36   157.53   175.40
                              176.13   200.32   221.49   257.95   296.41
                              297.34   319.25   377.67   381.92   410.23
                              440.78   456.07   467.19   489.59   496.08
                              502.95   520.28   549.31   593.80   611.31
                              658.72   696.23   719.67   777.17   799.46
                              853.65   905.01   924.54  1012.47  1016.10
                             1034.20  1078.29  1086.31  1111.58  1156.80
                             1200.31  1218.05  1238.54  1253.75  1281.95
                             1338.59  1346.15  1379.03  1418.28  1420.24
                             1440.04  1443.25  1455.61  1460.47  1471.86
                             1496.91  1507.59  1515.39  1532.74  1584.92
                             1597.44  1609.46  1625.60  1670.21  1673.72
                             1681.47  1701.68  1724.71  1732.79  1768.87
                             1784.76  1817.16  1882.26  1888.71  1892.69
                             1897.05  1907.54  1922.35  1927.03  1939.89
                             1956.97  1971.98  1999.50  2019.89  2025.40
                             2043.64  2090.26  2109.86  2112.06  2117.73
                             2128.85  2136.97  2147.45  2152.75  2160.41
                             2188.02  2338.66  2367.19  2506.39  4283.00
                             4305.70  4381.56  4416.54  4419.12  4437.95
                             4439.37  4455.39  4458.69  4466.60  4489.20
                             4493.12  4502.24  4503.13  4534.28  4562.60
                             4567.42  4580.41  4582.37  4596.59  4609.41
                             4653.80

 Zero-point correction=                           0.358781 (Hartree/Particle)
 Thermal correction to Energy=                    0.385864
 Thermal correction to Enthalpy=                  0.386808
 Thermal correction to Gibbs Free Energy=         0.298500
 Sum of electronic and zero-point Energies=          -3531.208867
 Sum of electronic and thermal Energies=             -3531.181784
 Sum of electronic and thermal Enthalpies=           -3531.180840
 Sum of electronic and thermal Free Energies=        -3531.269148

                     E (Thermal)             CV                S
                      KCal/Mol        Cal/Mol-Kelvin    Cal/Mol-Kelvin
 Total                  242.133             97.203            185.861
 Electronic               0.000              0.000              3.561
 Translational            0.889              2.981             44.100
 Rotational               0.889              2.981             35.400
 Vibrational            240.356             91.242            102.799
 Vibration     1          0.594              1.981              5.335
 Vibration     2          0.595              1.980              5.101
 Vibration     3          0.595              1.979              4.936
 Vibration     4          0.595              1.977              4.807
 Vibration     5          0.597              1.972              4.332
 Vibration     6          0.598              1.968              4.133
 Vibration     7          0.599              1.964              3.965
 Vibration     8          0.601              1.960              3.771
 Vibration     9          0.601              1.958              3.702
 Vibration    10          0.603              1.954              3.577
 Vibration    11          0.604              1.948              3.436
 Vibration    12          0.605              1.946              3.369
 Vibration    13          0.606              1.943              3.305
 Vibration    14          0.606              1.942              3.278
 Vibration    15          0.609              1.931              3.070
 Vibration    16          0.610              1.930              3.062
 Vibration    17          0.615              1.914              2.814
 Vibration    18          0.619              1.898              2.623
 Vibration    19          0.629              1.868              2.336
 Vibration    20          0.640              1.831              2.079
 Vibration    21          0.641              1.830              2.073
 Vibration    22          0.648              1.808              1.944
 Vibration    23          0.670              1.742              1.645
 Vibration    24          0.671              1.736              1.626
 Vibration    25          0.683              1.701              1.503
 Vibration    26          0.697              1.662              1.382
 Vibration    27          0.704              1.641              1.326
 Vibration    28          0.709              1.626              1.286
 Vibration    29          0.720              1.595              1.211
 Vibration    30          0.723              1.586              1.190
 Vibration    31          0.727              1.576              1.168
 Vibration    32          0.736              1.551              1.115
 Vibration    33          0.751              1.509              1.032
 Vibration    34          0.776              1.443              0.917
 Vibration    35          0.787              1.416              0.876
 Vibration    36          0.816              1.344              0.772
 Vibration    37          0.840              1.286              0.700
 Vibration    38          0.856              1.250              0.658
 Vibration    39          0.895              1.161              0.565
 Vibration    40          0.911              1.127              0.533
 Vibration    41          0.951              1.046              0.461

 Optimization completed.
    -- Stationary point found.
 Normal termination of Gaussian 16 at Mon Jul 12 22:58:18 2021.
