 Gaussian 16, Revision A.03,
 Gaussian 16:  ES64L-G16RevA.03 25-Dec-2016

 ----------------------------------------------------------------------
 #p freq=noraman b3lyp scrf=(solvent=water,pcm) pop=none empiricaldispe
 rsion=gd3bj jul-cc-pvdz
 ----------------------------------------------------------------------

 -----
 title
 -----
 Symbolic Z-matrix:
 Charge =  0 Multiplicity = 6

                         Standard orientation:
 ---------------------------------------------------------------------
 Center     Atomic      Atomic             Coordinates (Angstroms)
 Number     Number       Type             X           Y           Z
 ---------------------------------------------------------------------
      1          6           0       -1.694963    2.155573   -1.731540
      2          6           0       -1.405167    1.033305   -0.945723
      3          6           0       -2.074524   -0.168711   -1.222228
      4          6           0       -2.984877   -0.254400   -2.275907
      5          6           0       -3.254032    0.866223   -3.069152
      6          6           0       -2.608635    2.072325   -2.788167
      7          6           0       -0.451904    1.064198    0.256626
      8          6           0       -1.313890    1.301937    1.580549
      9          6           0       -0.825256    2.605378    2.224578
     10          6           0       -0.108881    3.389046    1.121280
     11          6           0        0.530066    2.287586    0.178942
     12          6           0        1.886838    2.128059    0.707749
     13          6           0        2.222327    1.361769    1.898460
     14          8           0        0.258379   -0.138962    0.352137
     15         26           0        1.253126   -1.216495   -0.738757
     16         17           0        3.093636   -1.838709    0.437621
     17          6           0        2.970709    2.769020   -0.043967
     18         17           0        0.113569   -3.073805   -1.348801
     19         17           0        1.897082    0.003902   -2.526849
     20          1           0       -1.874736   -1.043607   -0.609915
     21          1           0       -3.484688   -1.202481   -2.478348
     22          1           0       -3.962484    0.800293   -3.895699
     23          1           0       -2.810710    2.957372   -3.392372
     24          1           0       -1.222808    3.117623   -1.542846
     25          1           0       -2.360232    1.390506    1.275597
     26          6           0       -1.203254    0.081766    2.471207
     27          1           0       -0.148343    2.385487    3.056677
     28          1           0       -1.656437    3.190792    2.635325
     29          1           0        0.617300    4.112362    1.511255
     30          1           0       -0.807398    3.949178    0.488312
     31          1           0        0.603981    2.663266   -0.843040
     32          1           0        2.649227    3.710395   -0.507955
     33          1           0        3.141477    2.069782   -0.890700
     34          1           0        3.899216    2.879943    0.521623
     35          1           0        2.994364    1.870991    2.490021
     36          1           0        2.723009    0.453713    1.489154
     37          1           0        1.379218    1.014076    2.494942
     38          8           0       -2.029995   -0.885152    2.060503
     39          8           0       -0.446208   -0.026479    3.419899
     40          6           0       -1.880510   -2.190283    2.687622
     41          6           0       -2.718844   -3.169987    1.895773
     42          1           0       -2.208460   -2.110251    3.732377
     43          1           0       -0.815276   -2.451874    2.674532
     44          1           0       -2.643477   -4.164044    2.357956
     45          1           0       -2.360073   -3.240557    0.860201
     46          1           0       -3.775453   -2.869777    1.890150
 ---------------------------------------------------------------------

 SCF Done:  E(UB3LYP) =  -3531.56105622     A.U. after   25 cycles

 Isotropic polarizability for W=    0.000000      418.66 Bohr**3.
 End of Minotr F.D. properties file   721 does not exist.

                      1                      2                      3
                      A                      A                      A
 Frequencies --     23.7413                27.7534                37.4021
 Red. masses --      5.6635                 4.3402                 9.8825
 Frc consts  --      0.0019                 0.0020                 0.0081
 IR Inten    --      4.4073                 1.3895                 0.4768

                      4                      5                      6
                      A                      A                      A
 Frequencies --     45.4030                51.0239                68.5189
 Red. masses --      3.2993                 4.9084                 2.7983
 Frc consts  --      0.0040                 0.0075                 0.0077
 IR Inten    --      0.7319                 2.2238                 4.1887

                      7                      8                      9
                      A                      A                      A
 Frequencies --     69.6581                75.9491                85.2839
 Red. masses --      5.0808                 7.0084                12.2451
 Frc consts  --      0.0145                 0.0238                 0.0525
 IR Inten    --      1.3793                 9.2396                 7.3176

                     10                     11                     12
                      A                      A                      A
 Frequencies --     87.2961               103.0351               108.4828
 Red. masses --      4.0909                 7.8342                11.5689
 Frc consts  --      0.0184                 0.0490                 0.0802
 IR Inten    --      6.8368                 6.0566                13.3966

                     13                     14                     15
                      A                      A                      A
 Frequencies --    115.7602               118.2687               124.5705
 Red. masses --      7.7109                 7.0651                 8.5421
 Frc consts  --      0.0609                 0.0582                 0.0781
 IR Inten    --      4.0181                 6.7639                 7.5291

                     16                     17                     18
                      A                      A                      A
 Frequencies --    142.3040               144.3710               153.2299
 Red. masses --      2.6146                 2.1640                 2.5591
 Frc consts  --      0.0312                 0.0266                 0.0354
 IR Inten    --     23.3206                 9.7388                14.7415

                     19                     20                     21
                      A                      A                      A
 Frequencies --    177.1553               195.7657               199.6626
 Red. masses --      1.2368                 3.1844                 2.2574
 Frc consts  --      0.0229                 0.0719                 0.0530
 IR Inten    --      2.9938                11.1089                 1.8674

                     22                     23                     24
                      A                      A                      A
 Frequencies --    218.0658               232.9705               251.1619
 Red. masses --      2.1969                 3.6615                 3.6173
 Frc consts  --      0.0616                 0.1171                 0.1344
 IR Inten    --      2.4555                 0.4262                11.1120

                     25                     26                     27
                      A                      A                      A
 Frequencies --    259.8580               274.5705               296.6124
 Red. masses --      1.8964                 2.3185                 4.5052
 Frc consts  --      0.0754                 0.1030                 0.2335
 IR Inten    --     12.5735                 3.6162                 3.2426

                     28                     29                     30
                      A                      A                      A
 Frequencies --    306.5126               321.4292               333.2310
 Red. masses --     17.0012                 4.4526                 6.4049
 Frc consts  --      0.9411                 0.2710                 0.4190
 IR Inten    --     48.4063                 9.7091               113.1092

                     31                     32                     33
                      A                      A                      A
 Frequencies --    340.3623               345.1507               366.9303
 Red. masses --     11.8827                29.9439                 4.4734
 Frc consts  --      0.8111                 2.1017                 0.3549
 IR Inten    --    129.1753               166.7979                22.1421

                     34                     35                     36
                      A                      A                      A
 Frequencies --    406.7486               416.7185               426.9105
 Red. masses --      6.4167                 2.9576                 4.3044
 Frc consts  --      0.6255                 0.3026                 0.4622
 IR Inten    --     35.9162                 2.4255                11.7499

                     37                     38                     39
                      A                      A                      A
 Frequencies --    452.5523               477.0397               522.4887
 Red. masses --      3.1468                 2.4197                 2.5421
 Frc consts  --      0.3797                 0.3244                 0.4089
 IR Inten    --      8.0853                 6.3539                11.9767

                     40                     41                     42
                      A                      A                      A
 Frequencies --    550.6264               580.6908               627.8962
 Red. masses --      3.5350                 2.5390                 6.0635
 Frc consts  --      0.6315                 0.5044                 1.4085
 IR Inten    --     50.8977                16.1970                 6.3678

                     43                     44                     45
                      A                      A                      A
 Frequencies --    639.8512               698.0191               703.5101
 Red. masses --      4.8268                 5.7435                 4.0083
 Frc consts  --      1.1643                 1.6488                 1.1688
 IR Inten    --     53.5921                31.9609                24.6073

                     46                     47                     48
                      A                      A                      A
 Frequencies --    705.4061               746.4723               766.2531
 Red. masses --      1.4822                 1.5584                 2.4885
 Frc consts  --      0.4346                 0.5116                 0.8609
 IR Inten    --     98.6005                 8.8812                42.0187

                     49                     50                     51
                      A                      A                      A
 Frequencies --    780.9934               804.7337               809.7714
 Red. masses --      3.4283                 2.5135                 1.1300
 Frc consts  --      1.2320                 0.9590                 0.4366
 IR Inten    --     33.7297                 3.7471                 0.1316

                     52                     53                     54
                      A                      A                      A
 Frequencies --    841.3479               843.5532               858.6328
 Red. masses --      1.5211                 2.2457                 2.7349
 Frc consts  --      0.6344                 0.9415                 1.1880
 IR Inten    --      5.9263                 6.9169               117.4534

                     55                     56                     57
                      A                      A                      A
 Frequencies --    865.1614               878.2296               915.1461
 Red. masses --      3.4667                 2.7467                 1.9864
 Frc consts  --      1.5288                 1.2482                 0.9802
 IR Inten    --     35.1967                11.4773                38.6317

                     58                     59                     60
                      A                      A                      A
 Frequencies --    937.3793               945.7010               961.2581
 Red. masses --      2.5679                 2.3513                 2.1157
 Frc consts  --      1.3294                 1.2390                 1.1518
 IR Inten    --     15.2461                 6.3957                81.4923

                     61                     62                     63
                      A                      A                      A
 Frequencies --    983.5933               999.7153              1002.3949
 Red. masses --      1.3732                 1.8645                 1.6950
 Frc consts  --      0.7827                 1.0979                 1.0034
 IR Inten    --      0.5690                 9.2877                 6.3995

                     64                     65                     66
                      A                      A                      A
 Frequencies --   1007.4431              1014.7625              1026.2699
 Red. masses --      4.7744                 1.4252                 2.1952
 Frc consts  --      2.8550                 0.8647                 1.3622
 IR Inten    --      3.4122                 6.9498                18.7327

                     67                     68                     69
                      A                      A                      A
 Frequencies --   1032.5104              1046.5859              1054.0818
 Red. masses --      2.6801                 2.9115                 2.2657
 Frc consts  --      1.6834                 1.8789                 1.4832
 IR Inten    --     76.1786                46.4429                 8.1051

                     70                     71                     72
                      A                      A                      A
 Frequencies --   1068.9441              1095.1749              1106.2696
 Red. masses --      2.4611                 2.1306                 2.0838
 Frc consts  --      1.6569                 1.5056                 1.5025
 IR Inten    --    157.0600               181.7791                41.8111

                     73                     74                     75
                      A                      A                      A
 Frequencies --   1124.4497              1132.6114              1149.4021
 Red. masses --      2.2570                 2.2473                 1.7359
 Frc consts  --      1.6814                 1.6986                 1.3512
 IR Inten    --     91.2111                42.5567               118.8750

                     76                     77                     78
                      A                      A                      A
 Frequencies --   1166.8712              1167.8621              1186.0588
 Red. masses --      1.5474                 1.0807                 1.5326
 Frc consts  --      1.2414                 0.8685                 1.2702
 IR Inten    --     10.7490                 0.5663                43.0712

                     79                     80                     81
                      A                      A                      A
 Frequencies --   1203.4978              1205.0485              1221.7808
 Red. masses --      1.2023                 1.7053                 2.4651
 Frc consts  --      1.0260                 1.4590                 2.1681
 IR Inten    --      9.6999                99.8488               295.2067

                     82                     83                     84
                      A                      A                      A
 Frequencies --   1231.1643              1264.4107              1283.0051
 Red. masses --      1.4614                 1.7466                 1.1061
 Frc consts  --      1.3051                 1.6452                 1.0727
 IR Inten    --     89.8669                 7.6752                 2.1495

                     85                     86                     87
                      A                      A                      A
 Frequencies --   1285.9800              1311.1606              1315.7311
 Red. masses --      1.3514                 1.2106                 1.5453
 Frc consts  --      1.3167                 1.2262                 1.5761
 IR Inten    --     40.3857                21.4952               227.0997

                     88                     89                     90
                      A                      A                      A
 Frequencies --   1321.0768              1326.1651              1333.6507
 Red. masses --      1.3479                 1.3690                 1.8999
 Frc consts  --      1.3860                 1.4186                 1.9910
 IR Inten    --     54.1425                74.3608                17.5257

                     91                     92                     93
                      A                      A                      A
 Frequencies --   1357.0754              1365.0245              1367.9012
 Red. masses --      2.5098                 1.3834                 1.3739
 Frc consts  --      2.7233                 1.5188                 1.5146
 IR Inten    --     12.5393                64.8754                15.9509

                     94                     95                     96
                      A                      A                      A
 Frequencies --   1392.3764              1395.8234              1412.5498
 Red. masses --      1.5357                 1.1087                 1.6244
 Frc consts  --      1.7542                 1.2728                 1.9097
 IR Inten    --     98.2408                23.8917                17.7829

                     97                     98                     99
                      A                      A                      A
 Frequencies --   1419.2848              1448.4954              1467.9157
 Red. masses --      1.1818                 1.5182                 1.5860
 Frc consts  --      1.4026                 1.8768                 2.0135
 IR Inten    --      4.2542                75.8495                10.6126

                    100                    101                    102
                      A                      A                      A
 Frequencies --   1468.6606              1474.1679              1478.1400
 Red. masses --      1.2588                 1.0534                 1.1509
 Frc consts  --      1.5998                 1.3488                 1.4815
 IR Inten    --      6.1827                 3.0853                21.9523

                    103                    104                    105
                      A                      A                      A
 Frequencies --   1488.0828              1497.1352              1499.5868
 Red. masses --      1.3118                 1.1339                 1.0916
 Frc consts  --      1.7115                 1.4974                 1.4462
 IR Inten    --     46.5976                17.7859                12.0993

                    106                    107                    108
                      A                      A                      A
 Frequencies --   1507.9233              1521.5707              1625.3239
 Red. masses --      1.3021                 2.1654                 5.7979
 Frc consts  --      1.7444                 2.9537                 9.0241
 IR Inten    --     38.9803                21.4284                 0.8385

                    109                    110                    111
                      A                      A                      A
 Frequencies --   1644.9150              1736.3150              2897.2393
 Red. masses --      5.8673                11.4270                 1.0635
 Frc consts  --      9.3534                20.2974                 5.2596
 IR Inten    --      5.9373               528.9013               339.0521

                    112                    113                    114
                      A                      A                      A
 Frequencies --   2961.8677              3039.6176              3063.9190
 Red. masses --      1.0577                 1.0349                 1.0581
 Frc consts  --      5.4669                 5.6338                 5.8524
 IR Inten    --     80.0184                22.7062                31.1062

                    115                    116                    117
                      A                      A                      A
 Frequencies --   3071.0260              3082.1331              3083.2758
 Red. masses --      1.0605                 1.0646                 1.0655
 Frc consts  --      5.8932                 5.9587                 5.9682
 IR Inten    --     15.5213                30.8811                11.6580

                    118                    119                    120
                      A                      A                      A
 Frequencies --   3089.7391              3109.2324              3112.1327
 Red. masses --      1.0725                 1.1058                 1.0949
 Frc consts  --      6.0325                 6.2986                 6.2480
 IR Inten    --      4.4280                 0.8890                 7.7278

                    121                    122                    123
                      A                      A                      A
 Frequencies --   3118.2711              3118.8309              3130.8623
 Red. masses --      1.0978                 1.1013                 1.1073
 Frc consts  --      6.2890                 6.3118                 6.3952
 IR Inten    --      2.7016                35.7671                59.3735

                    124                    125                    126
                      A                      A                      A
 Frequencies --   3135.6600              3140.7082              3171.8507
 Red. masses --      1.1000                 1.0872                 1.0853
 Frc consts  --      6.3722                 6.3187                 6.4333
 IR Inten    --     18.6267                 4.8669                 0.9807

                    127                    128                    129
                      A                      A                      A
 Frequencies --   3178.5987              3180.9602              3193.4493
 Red. masses --      1.1056                 1.0901                 1.0948
 Frc consts  --      6.5812                 6.4986                 6.5780
 IR Inten    --     14.9856                17.3184                40.0824

                    130                    131                    132
                      A                      A                      A
 Frequencies --   3197.8833              3203.6993              3231.3152
 Red. masses --      1.1037                 1.0948                 1.0914
 Frc consts  --      6.6502                 6.6203                 6.7145
 IR Inten    --     25.8387                18.7184                 1.7331

 - Thermochemistry -
 -------------------
 Temperature   298.150 Kelvin.  Pressure   1.00000 Atm.
 Atom     1 has atomic number  6 and mass  12.00000

 Molecular mass:   434.99839 amu.
 Principal axes and moments of inertia in atomic units:
                           1         2         3
     Eigenvalues --  ******************************
           X            0.85590   0.51390   0.05784
           Y           -0.50072   0.85149  -0.15572
           Z           -0.12928   0.10432   0.98611
 This molecule is an asymmetric top.
 Rotational symmetry number  1.
 Warning -- assumption of classical behavior for rotation
           may cause significant error
 Rotational temperatures (Kelvin)      0.00858     0.00814     0.00791
 Rotational constants (GHZ):           0.17871     0.16954     0.16478
 Zero-point vibrational energy     942733.9 (Joules/Mol)
                                  225.31880 (Kcal/Mol)
 Warning -- explicit consideration of  41 degrees of freedom as
           vibrations may cause significant error
 Vibrational temperatures:     34.16    39.93    53.81    65.32    73.41
          (Kelvin)             98.58   100.22   109.27   122.70   125.60
                              148.24   156.08   166.55   170.16   179.23
                              204.74   207.72   220.46   254.89   281.66
                              287.27   313.75   335.19   361.37   373.88
                              395.05   426.76   441.00   462.46   479.45
                              489.71   496.59   527.93   585.22   599.56
                              614.23   651.12   686.35   751.74   792.23
                              835.48   903.40   920.60  1004.29  1012.19
                             1014.92  1074.01  1102.47  1123.68  1157.83
                             1165.08  1210.51  1213.68  1235.38  1244.77
                             1263.58  1316.69  1348.68  1360.65  1383.04
                             1415.17  1438.37  1442.22  1449.49  1460.02
                             1476.57  1485.55  1505.80  1516.59  1537.97
                             1575.71  1591.68  1617.83  1629.58  1653.73
                             1678.87  1680.29  1706.47  1731.56  1733.80
                             1757.87  1771.37  1819.21  1845.96  1850.24
                             1886.47  1893.04  1900.73  1908.06  1918.83
                             1952.53  1963.97  1968.10  2003.32  2008.28
                             2032.34  2042.03  2084.06  2112.00  2113.08
                             2121.00  2126.71  2141.02  2154.04  2157.57
                             2169.57  2189.20  2338.48  2366.67  2498.17
                             4168.48  4261.47  4373.33  4408.30  4418.52
                             4434.50  4436.15  4445.45  4473.49  4477.66
                             4486.50  4487.30  4504.61  4511.52  4518.78
                             4563.59  4573.29  4576.69  4594.66  4601.04
                             4609.41  4649.14

 Zero-point correction=                           0.359068 (Hartree/Particle)
 Thermal correction to Energy=                    0.386740
 Thermal correction to Enthalpy=                  0.387685
 Thermal correction to Gibbs Free Energy=         0.297056
 Sum of electronic and zero-point Energies=          -3531.201988
 Sum of electronic and thermal Energies=             -3531.174316
 Sum of electronic and thermal Enthalpies=           -3531.173372
 Sum of electronic and thermal Free Energies=        -3531.264000

                     E (Thermal)             CV                S
                      KCal/Mol        Cal/Mol-Kelvin    Cal/Mol-Kelvin
 Total                  242.683             98.714            190.744
 Electronic               0.000              0.000              3.561
 Translational            0.889              2.981             44.100
 Rotational               0.889              2.981             35.419
 Vibrational            240.906             92.752            107.664
 Vibration     1          0.593              1.985              6.294
 Vibration     2          0.593              1.984              5.984
 Vibration     3          0.594              1.982              5.392
 Vibration     4          0.595              1.979              5.008
 Vibration     5          0.595              1.977              4.777
 Vibration     6          0.598              1.969              4.195
 Vibration     7          0.598              1.969              4.163
 Vibration     8          0.599              1.965              3.993
 Vibration     9          0.601              1.959              3.765
 Vibration    10          0.601              1.958              3.720
 Vibration    11          0.605              1.947              3.396
 Vibration    12          0.606              1.942              3.296
 Vibration    13          0.608              1.936              3.170
 Vibration    14          0.608              1.934              3.128
 Vibration    15          0.610              1.928              3.028
 Vibration    16          0.616              1.911              2.773
 Vibration    17          0.616              1.909              2.745
 Vibration    18          0.619              1.899              2.632
 Vibration    19          0.628              1.870              2.358
 Vibration    20          0.636              1.846              2.173
 Vibration    21          0.638              1.840              2.136
 Vibration    22          0.646              1.814              1.975
 Vibration    23          0.654              1.790              1.856
 Vibration    24          0.663              1.761              1.722
 Vibration    25          0.668              1.746              1.663
 Vibration    26          0.677              1.720              1.567
 Vibration    27          0.690              1.680              1.436
 Vibration    28          0.697              1.661              1.381
 Vibration    29          0.707              1.632              1.303
 Vibration    30          0.715              1.609              1.244
 Vibration    31          0.720              1.595              1.210
 Vibration    32          0.724              1.585              1.188
 Vibration    33          0.740              1.540              1.093
 Vibration    34          0.772              1.456              0.938
 Vibration    35          0.780              1.434              0.903
 Vibration    36          0.789              1.412              0.869
 Vibration    37          0.811              1.355              0.788
 Vibration    38          0.834              1.301              0.718
 Vibration    39          0.877              1.200              0.604
 Vibration    40          0.906              1.138              0.543
 Vibration    41          0.937              1.073              0.484

 Normal termination of Gaussian 16 at Sun Jul  4 02:19:17 2021.
