 Gaussian 16, Revision A.03,
 Gaussian 16:  ES64L-G16RevA.03 25-Dec-2016

 ----------------------------------------------------------------------
 #p opt freq=noraman ub3lyp jul-cc-pvdz scrf=(pcm,solvent=water) pop=cm
 5
 ----------------------------------------------------------------------

 -----
 title
 -----
 Symbolic Z-matrix:
 Charge =  0 Multiplicity = 1

 SCF Done:  E(UB3LYP) =  -886.843251724     A.U. after   14 cycles
 SCF Done:  E(UB3LYP) =  -886.843830008     A.U. after   14 cycles
 SCF Done:  E(UB3LYP) =  -886.843518916     A.U. after   14 cycles
 SCF Done:  E(UB3LYP) =  -886.844378739     A.U. after   14 cycles
 SCF Done:  E(UB3LYP) =  -886.844486239     A.U. after   11 cycles
 SCF Done:  E(UB3LYP) =  -886.844739430     A.U. after   11 cycles
 SCF Done:  E(UB3LYP) =  -886.844870468     A.U. after   12 cycles
 SCF Done:  E(UB3LYP) =  -886.844887721     A.U. after   10 cycles
 SCF Done:  E(UB3LYP) =  -886.844895592     A.U. after   10 cycles
 SCF Done:  E(UB3LYP) =  -886.844897656     A.U. after    9 cycles
 SCF Done:  E(UB3LYP) =  -886.844898629     A.U. after   10 cycles
 SCF Done:  E(UB3LYP) =  -886.844898880     A.U. after    9 cycles
 SCF Done:  E(UB3LYP) =  -886.844899104     A.U. after    8 cycles
 Optimization completed.
    -- Stationary point found.
 Normal termination of Gaussian 16 at Sat Jun 26 17:04:31 2021.

 ----------------------------------------------------------------------
 #P Geom=AllCheck Guess=TCheck SCRF=Check GenChk UB3LYP/Jul-CC-pVDZ Fre
 q
 ----------------------------------------------------------------------

 Structure from the checkpoint file:  "/scratch/kwaneu.3001757.bmbhpcps002/Gau-35905.chk"
 -----
 title
 -----
 Charge =  0 Multiplicity = 1

                         Standard orientation:
 ---------------------------------------------------------------------
 Center     Atomic      Atomic             Coordinates (Angstroms)
 Number     Number       Type             X           Y           Z
 ---------------------------------------------------------------------
      1          6           0       -2.594691   -1.138049   -1.103380
      2          6           0       -1.895232   -1.230563    0.114073
      3          6           0       -2.466609   -1.962992    1.172986
      4          6           0       -3.703630   -2.585671    1.020160
      5          6           0       -4.391313   -2.487510   -0.197517
      6          6           0       -3.835046   -1.763617   -1.256824
      7          6           0       -0.564994   -0.581317    0.335738
      8          6           0        0.014422    0.325087   -0.767078
      9          6           0        1.514629    0.630529   -0.567334
     10          6           0        2.419429   -0.577110   -0.878468
     11          6           0        3.880035   -0.221847   -0.789428
     12          6           0        4.807040   -0.701507    0.060917
     13          6           0        6.236696   -0.217319    0.000460
     14          8           0        0.051334   -0.756354    1.378455
     15          6           0        4.545984   -1.737399    1.126748
     16          1           0       -1.924375   -2.031928    2.115684
     17          1           0       -4.135813   -3.148365    1.848652
     18          1           0       -5.359531   -2.975709   -0.319115
     19          1           0       -4.365690   -1.686544   -2.206449
     20          1           0       -2.181923   -0.583970   -1.945090
     21          1           0       -0.117817   -0.166066   -1.738845
     22          6           0       -0.768693    1.632552   -0.864002
     23          1           0        1.787237    1.461961   -1.234783
     24          1           0        1.681904    0.971706    0.462219
     25          1           0        2.168319   -1.407698   -0.207843
     26          1           0        2.196442   -0.918043   -1.904394
     27          1           0        4.209511    0.533862   -1.512896
     28          1           0        4.822260   -1.343561    2.118460
     29          1           0        3.500563   -2.063278    1.169321
     30          1           0        5.175661   -2.626802    0.960446
     31          1           0        6.542357    0.224795    0.963142
     32          1           0        6.927383   -1.055557   -0.189544
     33          1           0        6.380309    0.534591   -0.787352
     34          8           0       -0.978359    2.178429    0.341553
     35          8           0       -1.124880    2.138689   -1.912501
     36          6           0       -1.673109    3.462032    0.377590
     37          6           0       -1.798863    3.874009    1.829025
     38          1           0       -1.088152    4.182222   -0.208960
     39          1           0       -2.651257    3.333072   -0.103501
     40          1           0       -2.319991    4.840095    1.883545
     41          1           0       -2.378257    3.135793    2.400440
     42          1           0       -0.810233    3.987472    2.294793
 ---------------------------------------------------------------------

 SCF Done:  E(UB3LYP) =  -886.844899104     A.U. after    1 cycles

 The electronic state is 1-A.
 Alpha  occ. eigenvalues --  -19.20641 -19.15491 -19.15397 -10.33363 -10.29443
 Alpha  occ. eigenvalues --  -10.25054 -10.21860 -10.21446 -10.21247 -10.21065
 Alpha  occ. eigenvalues --  -10.20828 -10.20636 -10.20603 -10.19622 -10.19419
 Alpha  occ. eigenvalues --  -10.18807 -10.18749 -10.18011 -10.17949 -10.17851
 Alpha  occ. eigenvalues --   -1.12333  -1.06252  -1.03627  -0.87547  -0.83297
 Alpha  occ. eigenvalues --   -0.81270  -0.78083  -0.77820  -0.76445  -0.74226
 Alpha  occ. eigenvalues --   -0.69154  -0.67687  -0.65942  -0.63701  -0.62184
 Alpha  occ. eigenvalues --   -0.60317  -0.58346  -0.56368  -0.54102  -0.52017
 Alpha  occ. eigenvalues --   -0.50450  -0.49983  -0.49807  -0.48380  -0.47390
 Alpha  occ. eigenvalues --   -0.46616  -0.45522  -0.44947  -0.43787  -0.43731
 Alpha  occ. eigenvalues --   -0.43181  -0.42947  -0.42378  -0.40867  -0.40291
 Alpha  occ. eigenvalues --   -0.39451  -0.39310  -0.38285  -0.37569  -0.37309
 Alpha  occ. eigenvalues --   -0.37037  -0.36804  -0.36500  -0.36140  -0.35948
 Alpha  occ. eigenvalues --   -0.35442  -0.34276  -0.32792  -0.31993  -0.29969
 Alpha  occ. eigenvalues --   -0.27527  -0.27238  -0.27013  -0.23967
 Alpha virt. eigenvalues --   -0.08117  -0.03221  -0.01473  -0.00547  -0.00025
 Alpha virt. eigenvalues --    0.00461   0.00945   0.01077   0.01489   0.01701
 Alpha virt. eigenvalues --    0.02322   0.02611   0.02916   0.03234   0.03729

  Beta  occ. eigenvalues --  -19.20641 -19.15491 -19.15397 -10.33363 -10.29443
  Beta  occ. eigenvalues --  -10.25054 -10.21860 -10.21446 -10.21247 -10.21065
  Beta  occ. eigenvalues --  -10.20828 -10.20636 -10.20603 -10.19622 -10.19419
  Beta  occ. eigenvalues --  -10.18807 -10.18749 -10.18011 -10.17949 -10.17851
  Beta  occ. eigenvalues --   -1.12333  -1.06252  -1.03627  -0.87547  -0.83297
  Beta  occ. eigenvalues --   -0.81270  -0.78083  -0.77820  -0.76445  -0.74226
  Beta  occ. eigenvalues --   -0.69154  -0.67687  -0.65942  -0.63701  -0.62184
  Beta  occ. eigenvalues --   -0.60317  -0.58346  -0.56368  -0.54102  -0.52017
  Beta  occ. eigenvalues --   -0.50450  -0.49983  -0.49807  -0.48380  -0.47390
  Beta  occ. eigenvalues --   -0.46616  -0.45522  -0.44947  -0.43787  -0.43731
  Beta  occ. eigenvalues --   -0.43181  -0.42947  -0.42378  -0.40867  -0.40291
  Beta  occ. eigenvalues --   -0.39451  -0.39310  -0.38285  -0.37569  -0.37309
  Beta  occ. eigenvalues --   -0.37037  -0.36804  -0.36500  -0.36140  -0.35948
  Beta  occ. eigenvalues --   -0.35442  -0.34276  -0.32792  -0.31993  -0.29969
  Beta  occ. eigenvalues --   -0.27527  -0.27238  -0.27013  -0.23967
  Beta virt. eigenvalues --   -0.08117  -0.03221  -0.01473  -0.00547  -0.00025
  Beta virt. eigenvalues --    0.00461   0.00945   0.01077   0.01489   0.01701
  Beta virt. eigenvalues --    0.02322   0.02611   0.02916   0.03234   0.03729

 Mulliken charges and spin densities:
               1          2
     1  C    0.066790   0.000000
     2  C    2.026316   0.000000
     3  C   -0.485290   0.000000
     4  C   -0.021454   0.000000
     5  C    0.245239   0.000000
     6  C   -0.277841   0.000000
     7  C    0.245392   0.000000
     8  C   -0.077730   0.000000
     9  C    0.172964   0.000000
    10  C    0.143027   0.000000
    11  C    0.296672   0.000000
    12  C   -0.214870   0.000000
    13  C    0.128506   0.000000
    14  O   -0.721697   0.000000
    15  C    0.136098   0.000000
    16  H   -0.181039   0.000000
    17  H   -0.155801   0.000000
    18  H   -0.159307   0.000000
    19  H   -0.153930   0.000000
    20  H   -0.176515   0.000000
    21  H   -0.136551   0.000000
    22  C    0.655948   0.000000
    23  H   -0.098112   0.000000
    24  H   -0.052522   0.000000
    25  H   -0.103790   0.000000
    26  H   -0.070290   0.000000
    27  H   -0.205727   0.000000
    28  H    0.019177   0.000000
    29  H   -0.015866   0.000000
    30  H    0.010806   0.000000
    31  H    0.009886   0.000000
    32  H    0.008006   0.000000
    33  H   -0.036874   0.000000
    34  O   -0.660691   0.000000
    35  O   -0.652304   0.000000
    36  C    0.465476   0.000000
    37  C    0.074707   0.000000
    38  H   -0.042642   0.000000
    39  H   -0.042634   0.000000
    40  H   -0.004801   0.000000
    41  H    0.021799   0.000000
    42  H    0.021466   0.000000
 Sum of Mulliken charges =  -0.00000   0.00000

 Dipole moment (field-independent basis, Debye):
    X=             -2.3414    Y=             -0.2810    Z=              0.0934  Tot=              2.3601
 Quadrupole moment (field-independent basis, Debye-Ang):
   XX=           -103.2174   YY=           -111.8170   ZZ=           -126.2660
   XY=              4.9869   XZ=             -2.4331   YZ=              7.3981

  Exact polarizability: 336.415  22.015 263.508  28.706 -23.795 292.361
 Approx polarizability: 351.970  23.934 280.813  41.507 -31.245 343.731

                      1                      2                      3
                      A                      A                      A
 Frequencies --     15.4151                20.4058                23.7155
 Red. masses --      4.0357                 3.8962                 3.4410
 Frc consts  --      0.0006                 0.0010                 0.0011
 IR Inten    --      1.4700                 1.0665                 0.7152

                      4                      5                      6
                      A                      A                      A
 Frequencies --     29.8370                37.3112                60.8903
 Red. masses --      3.8636                 3.7158                 3.4900
 Frc consts  --      0.0020                 0.0030                 0.0076
 IR Inten    --      0.6766                 0.1729                 0.4393

                      7                      8                      9
                      A                      A                      A
 Frequencies --     69.6441                76.7008                97.5915
 Red. masses --      3.2661                 3.3641                 3.8628
 Frc consts  --      0.0093                 0.0117                 0.0217
 IR Inten    --      1.8489                 1.1903                 0.9194

                     10                     11                     12
                      A                      A                      A
 Frequencies --    117.4290               139.7801               143.9353
 Red. masses --      3.0703                 3.0812                 1.0955
 Frc consts  --      0.0249                 0.0355                 0.0134
 IR Inten    --      2.4805                 0.9458                 0.5141

                     13                     14                     15
                      A                      A                      A
 Frequencies --    155.9249               184.0243               193.4356
 Red. masses --      4.8628                 3.2768                 1.5463
 Frc consts  --      0.0697                 0.0654                 0.0341
 IR Inten    --      1.3953                 6.0056                 6.7903

                     16                     17                     18
                      A                      A                      A
 Frequencies --    214.9384               244.8484               260.9703
 Red. masses --      1.6201                 3.8777                 1.4463
 Frc consts  --      0.0441                 0.1370                 0.0580
 IR Inten    --      1.6108                 4.4598                 1.8596

                     19                     20                     21
                      A                      A                      A
 Frequencies --    282.0715               312.7052               337.0609
 Red. masses --      2.6687                 3.6916                 3.4469
 Frc consts  --      0.1251                 0.2127                 0.2307
 IR Inten    --     13.1425                 6.0452                 1.1326

                     22                     23                     24
                      A                      A                      A
 Frequencies --    361.8475               382.5192               407.0645
 Red. masses --      5.0374                 2.8267                 3.6463
 Frc consts  --      0.3886                 0.2437                 0.3560
 IR Inten    --     10.9925                 6.9841                 2.1296

                     25                     26                     27
                      A                      A                      A
 Frequencies --    409.6174               430.7184               448.7976
 Red. masses --      2.8475                 3.3632                 3.3601
 Frc consts  --      0.2815                 0.3676                 0.3987
 IR Inten    --      0.0013                 9.3851                 5.8783

                     28                     29                     30
                      A                      A                      A
 Frequencies --    483.7258               499.2308               540.6827
 Red. masses --      3.3553                 3.8023                 2.9051
 Frc consts  --      0.4626                 0.5583                 0.5004
 IR Inten    --      3.5450                13.8706                10.7329

                     31                     32                     33
                      A                      A                      A
 Frequencies --    605.1189               623.9098               668.3892
 Red. masses --      4.6373                 6.4036                 3.4916
 Frc consts  --      1.0005                 1.4687                 0.9190
 IR Inten    --     16.0262                 0.8616                23.7158

                     34                     35                     36
                      A                      A                      A
 Frequencies --    694.1898               724.2345               734.5884
 Red. masses --      1.6827                 2.1501                 2.5845
 Frc consts  --      0.4778                 0.6645                 0.8217
 IR Inten    --     75.3779                 6.5797                34.2451

                     37                     38                     39
                      A                      A                      A
 Frequencies --    757.1763               787.3871               808.0947
 Red. masses --      3.0247                 2.8683                 1.2781
 Frc consts  --      1.0217                 1.0477                 0.4917
 IR Inten    --      8.1511                 3.2255                 4.6716

                     40                     41                     42
                      A                      A                      A
 Frequencies --    809.3980               842.4719               846.7881
 Red. masses --      2.0876                 2.4789                 1.2929
 Frc consts  --      0.8058                 1.0366                 0.5462
 IR Inten    --     11.7582                21.0901                 2.0634

                     43                     44                     45
                      A                      A                      A
 Frequencies --    851.9171               880.1640               944.1864
 Red. masses --      1.5724                 2.8147                 2.2117
 Frc consts  --      0.6724                 1.2847                 1.1617
 IR Inten    --     23.6092                 9.1952                21.1768

                     46                     47                     48
                      A                      A                      A
 Frequencies --    950.9307               961.2799               970.3979
 Red. masses --      2.1615                 1.4327                 3.6117
 Frc consts  --      1.1516                 0.7800                 2.0038
 IR Inten    --     39.3352                 4.8763                36.5923

                     49                     50                     51
                      A                      A                      A
 Frequencies --    992.5313               995.6558              1002.9403
 Red. masses --      1.3902                 4.5579                 1.9623
 Frc consts  --      0.8069                 2.6622                 1.1630
 IR Inten    --      1.1526                 3.3743                 9.6456

                     52                     53                     54
                      A                      A                      A
 Frequencies --   1005.5503              1011.8633              1032.3705
 Red. masses --      1.3813                 1.3293                 2.9808
 Frc consts  --      0.8229                 0.8019                 1.8717
 IR Inten    --     12.9397                 0.2397                42.0410

                     55                     56                     57
                      A                      A                      A
 Frequencies --   1044.1032              1048.3396              1057.3583
 Red. masses --      2.3221                 2.9996                 2.0048
 Frc consts  --      1.4915                 1.9423                 1.3206
 IR Inten    --     31.3473               100.7259                14.4990

                     58                     59                     60
                      A                      A                      A
 Frequencies --   1084.3564              1096.2774              1102.7339
 Red. masses --      2.5846                 1.6839                 1.6255
 Frc consts  --      1.7905                 1.1923                 1.1646
 IR Inten    --      8.2413                 0.0484                 7.1992

                     61                     62                     63
                      A                      A                      A
 Frequencies --   1125.9542              1128.4887              1161.2450
 Red. masses --      1.9200                 2.1253                 1.4195
 Frc consts  --      1.4341                 1.5947                 1.1278
 IR Inten    --     46.6141                 4.4582                 8.9044

                     64                     65                     66
                      A                      A                      A
 Frequencies --   1165.4837              1168.2953              1190.5471
 Red. masses --      1.5412                 1.0999                 1.1578
 Frc consts  --      1.2334                 0.8845                 0.9668
 IR Inten    --      5.9476                 4.5596                52.3283

                     67                     68                     69
                      A                      A                      A
 Frequencies --   1212.7955              1229.8956              1244.6734
 Red. masses --      2.2515                 2.3041                 2.2406
 Frc consts  --      1.9512                 2.0535                 2.0451
 IR Inten    --    337.1456               152.1144               167.3857

                     70                     71                     72
                      A                      A                      A
 Frequencies --   1273.5235              1281.7810              1298.3992
 Red. masses --      1.8327                 1.1015                 1.6208
 Frc consts  --      1.7512                 1.0663                 1.6099
 IR Inten    --    172.5152                 2.7332               147.1436

                     73                     74                     75
                      A                      A                      A
 Frequencies --   1310.2028              1327.4939              1357.6094
 Red. masses --      1.2275                 1.4474                 2.7761
 Frc consts  --      1.2415                 1.5028                 3.0146
 IR Inten    --      8.2919                 0.3913                41.0146

                     76                     77                     78
                      A                      A                      A
 Frequencies --   1360.5769              1362.4698              1375.3127
 Red. masses --      1.3906                 1.7698                 1.3425
 Frc consts  --      1.5167                 1.9357                 1.4961
 IR Inten    --     24.4002                19.4332                10.7537

                     79                     80                     81
                      A                      A                      A
 Frequencies --   1378.6573              1394.9265              1401.8827
 Red. masses --      1.3859                 1.3769                 1.3255
 Frc consts  --      1.5520                 1.5786                 1.5348
 IR Inten    --      4.5220                 9.1142                 5.3763

                     82                     83                     84
                      A                      A                      A
 Frequencies --   1406.8578              1456.4292              1457.9027
 Red. masses --      1.4249                 1.0469                 1.0794
 Frc consts  --      1.6616                 1.3084                 1.3517
 IR Inten    --     10.0389                 0.7454                 7.2322

                     85                     86                     87
                      A                      A                      A
 Frequencies --   1465.9599              1466.6050              1467.3636
 Red. masses --      1.0404                 2.2416                 1.0778
 Frc consts  --      1.3174                 2.8407                 1.3673
 IR Inten    --      7.7110                29.9620                 2.8327

                     88                     89                     90
                      A                      A                      A
 Frequencies --   1472.9898              1473.8399              1475.4792
 Red. masses --      1.0431                 1.0548                 1.0752
 Frc consts  --      1.3335                 1.3500                 1.3791
 IR Inten    --     22.5718                 2.5931                 8.8736

                     91                     92                     93
                      A                      A                      A
 Frequencies --   1483.8926              1498.9441              1513.3845
 Red. masses --      1.0931                 1.0868                 2.2169
 Frc consts  --      1.4181                 1.4387                 2.9915
 IR Inten    --     12.1233                13.8005                 3.8992

                     94                     95                     96
                      A                      A                      A
 Frequencies --   1616.1249              1635.0454              1703.2553
 Red. masses --      5.6670                 5.7936                12.0365
 Frc consts  --      8.7207                 9.1256                20.5735
 IR Inten    --     33.8204                81.3477               815.5203

                     97                     98                     99
                      A                      A                      A
 Frequencies --   1728.4872              1736.8906              3003.1833
 Red. masses --      6.7735                11.2660                 1.0703
 Frc consts  --     11.9232                20.0246                 5.6875
 IR Inten    --     28.6737               197.6454                63.7616

                    100                    101                    102
                      A                      A                      A
 Frequencies --   3005.8296              3014.2780              3040.1309
 Red. masses --      1.0380                 1.0412                 1.0351
 Frc consts  --      5.5257                 5.5737                 5.6367
 IR Inten    --     48.0870                75.7186                21.8677

                    103                    104                    105
                      A                      A                      A
 Frequencies --   3041.7249              3056.1573              3059.7599
 Red. masses --      1.0645                 1.0994                 1.0989
 Frc consts  --      5.8030                 6.0498                 6.0614
 IR Inten    --     39.2825                25.5915                49.9267

                    106                    107                    108
                      A                      A                      A
 Frequencies --   3064.9688              3087.3443              3095.3596
 Red. masses --      1.0577                 1.0853                 1.0877
 Frc consts  --      5.8542                 6.0951                 6.1403
 IR Inten    --     27.2487                 2.8061                 8.9157

                    109                    110                    111
                      A                      A                      A
 Frequencies --   3104.0294              3107.4550              3108.1314
 Red. masses --      1.0958                 1.0980                 1.1060
 Frc consts  --      6.2205                 6.2468                 6.2954
 IR Inten    --     18.5997                23.3519                 0.0533

                    112                    113                    114
                      A                      A                      A
 Frequencies --   3113.5072              3119.3473              3129.7044
 Red. masses --      1.0941                 1.1015                 1.1077
 Frc consts  --      6.2487                 6.3147                 6.3929
 IR Inten    --     99.1231                33.0136                62.6000

                    115                    116                    117
                      A                      A                      A
 Frequencies --   3131.1227              3174.9084              3185.4593
 Red. masses --      1.0958                 1.0855                 1.0897
 Frc consts  --      6.3299                 6.4465                 6.5146
 IR Inten    --     47.2913                 0.2658                11.5356

                    118                    119                    120
                      A                      A                      A
 Frequencies --   3194.8106              3205.2992              3208.5198
 Red. masses --      1.0940                 1.0938                 1.0951
 Frc consts  --      6.5790                 6.6212                 6.6424
 IR Inten    --     20.4963                15.9908                 6.0693

 - Thermochemistry -
 -------------------
 Temperature   298.150 Kelvin.  Pressure   1.00000 Atm.
 Atom     1 has atomic number  6 and mass  12.00000

 Molecular mass:   274.15689 amu.
 Principal axes and moments of inertia in atomic units:
                           1         2         3
     Eigenvalues --  4528.508869928.68317**********
           X            0.99990  -0.01435  -0.00032
           Y            0.01436   0.99972   0.01879
           Z            0.00005  -0.01879   0.99982
 This molecule is an asymmetric top.
 Rotational symmetry number  1.
 Warning -- assumption of classical behavior for rotation
           may cause significant error
 Rotational temperatures (Kelvin)      0.01913     0.00872     0.00703
 Rotational constants (GHZ):           0.39853     0.18177     0.14651
 Zero-point vibrational energy     926975.7 (Joules/Mol)
                                  221.55252 (Kcal/Mol)
 Warning -- explicit consideration of  31 degrees of freedom as
           vibrations may cause significant error
 Vibrational temperatures:     22.18    29.36    34.12    42.93    53.68
          (Kelvin)             87.61   100.20   110.36   140.41   168.95
                              201.11   207.09   224.34   264.77   278.31
                              309.25   352.28   375.48   405.84   449.91
                              484.96   520.62   550.36   585.68   589.35
                              619.71   645.72   695.97   718.28   777.92
                              870.63   897.67   961.66   998.78  1042.01
                             1056.91  1089.41  1132.87  1162.67  1164.54
                             1212.13  1218.34  1225.72  1266.36  1358.47
                             1368.18  1383.07  1396.19  1428.03  1432.53
                             1443.01  1446.76  1455.85  1485.35  1502.23
                             1508.33  1521.30  1560.15  1577.30  1586.59
                             1620.00  1623.64  1670.77  1676.87  1680.92
                             1712.93  1744.94  1769.55  1790.81  1832.32
                             1844.20  1868.11  1885.09  1909.97  1953.30
                             1957.57  1960.29  1978.77  1983.58  2006.99
                             2017.00  2024.15  2095.48  2097.60  2109.19
                             2110.12  2111.21  2119.30  2120.53  2122.89
                             2134.99  2156.65  2177.42  2325.24  2352.47
                             2450.60  2486.91  2499.00  4320.91  4324.72
                             4336.87  4374.07  4376.36  4397.13  4402.31
                             4409.81  4442.00  4453.53  4466.01  4470.93
                             4471.91  4479.64  4488.05  4502.95  4504.99
                             4567.99  4583.17  4596.62  4611.71  4616.34

 Zero-point correction=                           0.353066 (Hartree/Particle)
 Thermal correction to Energy=                    0.374722
 Thermal correction to Enthalpy=                  0.375666
 Thermal correction to Gibbs Free Energy=         0.297981
 Sum of electronic and zero-point Energies=           -886.491833
 Sum of electronic and thermal Energies=              -886.470177
 Sum of electronic and thermal Enthalpies=            -886.469233
 Sum of electronic and thermal Free Energies=         -886.546918

                     E (Thermal)             CV                S
                      KCal/Mol        Cal/Mol-Kelvin    Cal/Mol-Kelvin
 Total                  235.142             78.517            163.503
 Electronic               0.000              0.000              0.000
 Translational            0.889              2.981             42.724
 Rotational               0.889              2.981             34.670
 Vibrational            233.364             72.556             86.109
 Vibration     1          0.593              1.986              7.151
 Vibration     2          0.593              1.986              6.594
 Vibration     3          0.593              1.985              6.296
 Vibration     4          0.594              1.984              5.840
 Vibration     5          0.594              1.982              5.397
 Vibration     6          0.597              1.973              4.428
 Vibration     7          0.598              1.969              4.163
 Vibration     8          0.599              1.965              3.974
 Vibration     9          0.603              1.951              3.502
 Vibration    10          0.608              1.935              3.142
 Vibration    11          0.615              1.914              2.807
 Vibration    12          0.616              1.909              2.751
 Vibration    13          0.620              1.896              2.599
 Vibration    14          0.631              1.862              2.287
 Vibration    15          0.635              1.849              2.195
 Vibration    16          0.645              1.818              2.001
 Vibration    17          0.660              1.771              1.767
 Vibration    18          0.669              1.744              1.655
 Vibration    19          0.681              1.707              1.521
 Vibration    20          0.701              1.649              1.348
 Vibration    21          0.718              1.601              1.226
 Vibration    22          0.736              1.551              1.114
 Vibration    23          0.752              1.507              1.029
 Vibration    24          0.772              1.455              0.937
 Vibration    25          0.774              1.449              0.928
 Vibration    26          0.792              1.403              0.856
 Vibration    27          0.808              1.364              0.799
 Vibration    28          0.840              1.286              0.700
 Vibration    29          0.855              1.252              0.660
 Vibration    30          0.896              1.160              0.564
 Vibration    31          0.964              1.021              0.441

                           ! Non-Optimized Parameters !
 Normal termination of Gaussian 16 at Sat Jun 26 18:46:35 2021.
