 Gaussian 16, Revision A.03,
 Gaussian 16:  ES64L-G16RevA.03 25-Dec-2016

 ----------------------------------------------------------------------
 #p freq=noraman b3lyp scrf=(solvent=water,pcm) pop=none empiricaldispe
 rsion=gd3bj jul-cc-pvdz
 ----------------------------------------------------------------------

 -----
 title
 -----
 Symbolic Z-matrix:
 Charge =  0 Multiplicity = 6

                         Standard orientation:
 ---------------------------------------------------------------------
 Center     Atomic      Atomic             Coordinates (Angstroms)
 Number     Number       Type             X           Y           Z
 ---------------------------------------------------------------------
      1          6           0        3.095165   -1.610912   -1.206483
      2          6           0        2.087434   -0.625470   -1.292209
      3          6           0        2.334416    0.562452   -2.015854
      4          6           0        3.563556    0.760972   -2.631675
      5          6           0        4.565162   -0.213709   -2.521756
      6          6           0        4.330730   -1.396077   -1.808733
      7          6           0        0.803338   -0.807155   -0.634265
      8          6           0        0.388285   -2.151772   -0.067463
      9          6           0       -1.143010   -2.290967    0.040465
     10          6           0       -1.819157   -2.370833   -1.339156
     11          6           0       -3.319298   -2.393932   -1.217744
     12          6           0       -4.136288   -1.326604   -1.264599
     13          6           0       -5.625737   -1.476489   -1.087224
     14          8           0        0.000891    0.148380   -0.515930
     15          6           0       -3.665339    0.088780   -1.477641
     16          1           0        1.547785    1.306437   -2.114798
     17          1           0        3.746382    1.672126   -3.200368
     18          1           0        5.531378   -0.053654   -3.001286
     19          1           0        5.112098   -2.150751   -1.727700
     20          1           0        2.927677   -2.533881   -0.654919
     21          1           0        0.794039   -2.950814   -0.694814
     22          6           0        1.020645   -2.331787    1.317059
     23          1           0       -1.363944   -3.201281    0.614536
     24          1           0       -1.542350   -1.442505    0.607428
     25          1           0       -1.495260   -1.521153   -1.953994
     26          1           0       -1.471972   -3.281154   -1.850786
     27          1           0       -3.769137   -3.374307   -1.030495
     28          1           0       -3.917157    0.708118   -0.602783
     29          1           0       -2.585360    0.167699   -1.637892
     30          1           0       -4.180090    0.539813   -2.340785
     31          1           0       -5.978055   -0.879667   -0.230249
     32          1           0       -6.165060   -1.101039   -1.972057
     33          1           0       -5.912494   -2.523765   -0.923083
     34          8           0        0.801974   -1.266789    2.086749
     35          8           0        1.611482   -3.335414    1.660986
     36          6           0        1.302118   -1.322344    3.458867
     37          6           0        0.856777   -0.054153    4.151129
     38          1           0        0.892901   -2.224210    3.930204
     39          1           0        2.394690   -1.414532    3.412016
     40          1           0        1.221940   -0.066306    5.187254
     41          1           0        1.260832    0.831038    3.643797
     42          1           0       -0.238818    0.018224    4.166395
     43         26           0       -0.386414    1.883281    0.293280
     44         17           0        1.552126    2.480836    1.200495
     45         17           0       -0.940978    3.179265   -1.424798
     46         17           0       -2.017667    1.628184    1.781853
 ---------------------------------------------------------------------

 SCF Done:  E(UB3LYP) =  -3531.58566933     A.U. after   23 cycles

 Isotropic polarizability for W=    0.000000      437.92 Bohr**3.
 End of Minotr F.D. properties file   721 does not exist.

                      1                      2                      3
                      A                      A                      A
 Frequencies --     18.2788                19.5596                29.9447
 Red. masses --      4.9326                 4.1728                 5.1291
 Frc consts  --      0.0010                 0.0009                 0.0027
 IR Inten    --      1.5666                 1.6235                 1.4889

                      4                      5                      6
                      A                      A                      A
 Frequencies --     40.3459                46.4547                48.9779
 Red. masses --      5.0412                 6.5968                 5.5901
 Frc consts  --      0.0048                 0.0084                 0.0079
 IR Inten    --      0.7491                 2.6435                 0.5132

                      7                      8                      9
                      A                      A                      A
 Frequencies --     55.6005                61.0969                69.0004
 Red. masses --      5.4269                 4.2564                 3.0557
 Frc consts  --      0.0099                 0.0094                 0.0086
 IR Inten    --      0.6263                 0.5510                 0.9920

                     10                     11                     12
                      A                      A                      A
 Frequencies --     73.0316                78.1516                87.3670
 Red. masses --      5.4242                 8.3941                10.4113
 Frc consts  --      0.0170                 0.0302                 0.0468
 IR Inten    --      1.3171                 5.7647                 2.1101

                     13                     14                     15
                      A                      A                      A
 Frequencies --     91.1225                97.3658               105.5993
 Red. masses --      4.0813                 6.8649                 3.3485
 Frc consts  --      0.0200                 0.0383                 0.0220
 IR Inten    --      2.5818                 4.4584                 4.2981

                     16                     17                     18
                      A                      A                      A
 Frequencies --    112.4392               123.0108               129.9226
 Red. masses --      4.6796                 8.8357                 1.2903
 Frc consts  --      0.0349                 0.0788                 0.0128
 IR Inten    --      0.3947                 7.8645                 1.6368

                     19                     20                     21
                      A                      A                      A
 Frequencies --    137.1234               152.0093               177.4119
 Red. masses --      6.4642                 3.2401                 6.3635
 Frc consts  --      0.0716                 0.0441                 0.1180
 IR Inten    --     14.2942                 3.9046                17.2360

                     22                     23                     24
                      A                      A                      A
 Frequencies --    190.3240               200.3560               218.6500
 Red. masses --      1.5074                 3.6733                 1.6946
 Frc consts  --      0.0322                 0.0869                 0.0477
 IR Inten    --      2.9669                 5.7206                 4.1244

                     25                     26                     27
                      A                      A                      A
 Frequencies --    256.9994               261.0134               285.9408
 Red. masses --      1.7793                 3.0346                 7.3573
 Frc consts  --      0.0692                 0.1218                 0.3544
 IR Inten    --      5.8018                 5.9477                23.1352

                     28                     29                     30
                      A                      A                      A
 Frequencies --    311.6286               328.5768               333.9321
 Red. masses --      2.4520                 7.1577                 8.6062
 Frc consts  --      0.1403                 0.4553                 0.5654
 IR Inten    --      1.7040                12.2323                71.8536

                     31                     32                     33
                      A                      A                      A
 Frequencies --    348.7414               369.3926               378.7360
 Red. masses --      4.2006                 4.3659                37.7094
 Frc consts  --      0.3010                 0.3510                 3.1869
 IR Inten    --      7.4789                51.0805               227.2199

                     34                     35                     36
                      A                      A                      A
 Frequencies --    386.7606               388.9787               407.3352
 Red. masses --      2.8724                28.0295                 3.1570
 Frc consts  --      0.2532                 2.4987                 0.3086
 IR Inten    --     11.1207               215.5691                 4.1093

                     37                     38                     39
                      A                      A                      A
 Frequencies --    415.7837               426.6373               443.8453
 Red. masses --      3.0625                 3.7895                 3.1947
 Frc consts  --      0.3119                 0.4064                 0.3708
 IR Inten    --     17.8843                 2.5904                23.1974

                     40                     41                     42
                      A                      A                      A
 Frequencies --    485.2486               536.4226               566.4078
 Red. masses --      2.5192                 4.7433                 3.1433
 Frc consts  --      0.3495                 0.8042                 0.5942
 IR Inten    --      7.9208                36.4628                20.4894

                     43                     44                     45
                      A                      A                      A
 Frequencies --    621.6497               629.5693               669.7460
 Red. masses --      6.2338                 5.9632                 3.6092
 Frc consts  --      1.4194                 1.3926                 0.9538
 IR Inten    --      1.9493                26.5774                32.5682

                     46                     47                     48
                      A                      A                      A
 Frequencies --    695.4732               733.8552               745.2811
 Red. masses --      1.8035                 3.1134                 1.6690
 Frc consts  --      0.5139                 0.9879                 0.5462
 IR Inten    --     66.6431                20.0631                15.4282

                     49                     50                     51
                      A                      A                      A
 Frequencies --    759.9341               795.7126               810.5467
 Red. masses --      2.8747                 3.0875                 1.1381
 Frc consts  --      0.9781                 1.1518                 0.4406
 IR Inten    --     45.9592                 8.4924                 2.7469

                     52                     53                     54
                      A                      A                      A
 Frequencies --    821.5940               840.6598               850.0087
 Red. masses --      3.0527                 1.5847                 2.3693
 Frc consts  --      1.2141                 0.6598                 1.0086
 IR Inten    --      1.5336                39.7900                21.6686

                     55                     56                     57
                      A                      A                      A
 Frequencies --    852.8492               883.3288               953.2361
 Red. masses --      1.2895                 2.9701                 2.9203
 Frc consts  --      0.5526                 1.3654                 1.5634
 IR Inten    --      5.9914                11.1638                12.2742

                     58                     59                     60
                      A                      A                      A
 Frequencies --    963.4178               972.2225               978.4898
 Red. masses --      1.4406                 1.5102                 3.2636
 Frc consts  --      0.7878                 0.8411                 1.8410
 IR Inten    --      0.7050                 7.9537                54.8343

                     61                     62                     63
                      A                      A                      A
 Frequencies --   1000.2881              1001.7037              1009.1651
 Red. masses --      4.0934                 1.3012                 1.4645
 Frc consts  --      2.4132                 0.7693                 0.8788
 IR Inten    --     24.9695                 6.5700                 4.3802

                     64                     65                     66
                      A                      A                      A
 Frequencies --   1011.9903              1028.0264              1034.2221
 Red. masses --      2.1503                 1.3894                 2.7721
 Frc consts  --      1.2975                 0.8651                 1.7470
 IR Inten    --     23.9517                 0.0670                57.6424

                     67                     68                     69
                      A                      A                      A
 Frequencies --   1048.2188              1051.6375              1066.0854
 Red. masses --      3.0248                 2.2657                 2.0238
 Frc consts  --      1.9582                 1.4764                 1.3552
 IR Inten    --     74.8844                31.0812                34.3660

                     70                     71                     72
                      A                      A                      A
 Frequencies --   1083.9018              1097.2356              1124.7925
 Red. masses --      2.6916                 1.6945                 1.6253
 Frc consts  --      1.8631                 1.2019                 1.2115
 IR Inten    --      8.8268                 0.0851                 3.7349

                     73                     74                     75
                      A                      A                      A
 Frequencies --   1127.5041              1132.9398              1167.7745
 Red. masses --      1.7954                 2.1630                 1.5411
 Frc consts  --      1.3448                 1.6358                 1.2382
 IR Inten    --     55.4675                12.8715                13.4016

                     76                     77                     78
                      A                      A                      A
 Frequencies --   1173.4531              1177.5707              1202.6645
 Red. masses --      1.4713                 1.1002                 1.1915
 Frc consts  --      1.1937                 0.8988                 1.0154
 IR Inten    --     23.0702                 0.0302               173.9366

                     79                     80                     81
                      A                      A                      A
 Frequencies --   1211.0667              1245.3938              1264.2977
 Red. masses --      2.1490                 2.0138                 1.9131
 Frc consts  --      1.8570                 1.8402                 1.8017
 IR Inten    --    327.0527                63.3434               328.7494

                     82                     83                     84
                      A                      A                      A
 Frequencies --   1283.9436              1285.1224              1315.0768
 Red. masses --      1.3297                 1.3516                 1.2817
 Frc consts  --      1.2915                 1.3152                 1.3060
 IR Inten    --     35.5565                54.3989                10.3290

                     85                     86                     87
                      A                      A                      A
 Frequencies --   1319.1001              1337.7330              1357.6332
 Red. masses --      1.4958                 1.4983                 1.3621
 Frc consts  --      1.5335                 1.5798                 1.4792
 IR Inten    --    153.6341                13.9534                20.1131

                     88                     89                     90
                      A                      A                      A
 Frequencies --   1374.1048              1376.4879              1380.1454
 Red. masses --      1.5047                 2.5814                 1.4323
 Frc consts  --      1.6740                 2.8817                 1.6074
 IR Inten    --     25.7044                31.1098                35.7344

                     91                     92                     93
                      A                      A                      A
 Frequencies --   1383.1423              1395.8649              1404.4645
 Red. masses --      2.0822                 1.3626                 1.3405
 Frc consts  --      2.3469                 1.5642                 1.5579
 IR Inten    --    112.0960                 8.5299                 7.6822

                     94                     95                     96
                      A                      A                      A
 Frequencies --   1409.8451              1455.3749              1463.1510
 Red. masses --      1.4300                 1.0481                 1.0696
 Frc consts  --      1.6747                 1.3079                 1.3491
 IR Inten    --     21.5571                 2.8030                16.7355

                     97                     98                     99
                      A                      A                      A
 Frequencies --   1464.9964              1469.5274              1471.6677
 Red. masses --      1.0387                 2.3176                 1.0572
 Frc consts  --      1.3134                 2.9487                 1.3491
 IR Inten    --      7.4719                82.1310                31.4619

                    100                    101                    102
                      A                      A                      A
 Frequencies --   1474.2578              1475.2019              1478.6565
 Red. masses --      1.0700                 1.0578                 1.0869
 Frc consts  --      1.3701                 1.3563                 1.4002
 IR Inten    --     16.4243                 4.8576                14.4640

                    103                    104                    105
                      A                      A                      A
 Frequencies --   1494.3212              1500.4335              1519.7556
 Red. masses --      1.0932                 1.0876                 2.2586
 Frc consts  --      1.4383                 1.4426                 3.0735
 IR Inten    --     17.5185                21.2559                66.3967

                    106                    107                    108
                      A                      A                      A
 Frequencies --   1564.4417              1617.1404              1643.2318
 Red. masses --      7.4195                 5.4473                 6.1102
 Frc consts  --     10.6990                 8.3931                 9.7209
 IR Inten    --   1727.3319               117.4159               116.4734

                    109                    110                    111
                      A                      A                      A
 Frequencies --   1728.9323              1745.5499              3008.7254
 Red. masses --      6.7124                11.4868                 1.0377
 Frc consts  --     11.8218                20.6211                 5.5346
 IR Inten    --     30.5761               566.6783                56.6239

                    112                    113                    114
                      A                      A                      A
 Frequencies --   3020.7522              3036.9170              3044.7582
 Red. masses --      1.0420                 1.0639                 1.0351
 Frc consts  --      5.6021                 5.7812                 5.6535
 IR Inten    --     67.4418                47.8368                18.3317

                    115                    116                    117
                      A                      A                      A
 Frequencies --   3058.8490              3060.3613              3069.5643
 Red. masses --      1.0654                 1.0993                 1.0580
 Frc consts  --      5.8735                 6.0663                 5.8731
 IR Inten    --     28.8753                32.4650                29.1887

                    118                    119                    120
                      A                      A                      A
 Frequencies --   3069.8864              3087.5986              3108.5492
 Red. masses --      1.0981                 1.0946                 1.1006
 Frc consts  --      6.0974                 6.1480                 6.2660
 IR Inten    --     33.6393                23.9113                34.9023

                    121                    122                    123
                      A                      A                      A
 Frequencies --   3116.7094              3117.4754              3124.4994
 Red. masses --      1.1059                 1.0945                 1.1025
 Frc consts  --      6.3296                 6.2670                 6.3413
 IR Inten    --      5.5510                 3.7428                27.7737

                    124                    125                    126
                      A                      A                      A
 Frequencies --   3126.2083              3129.6490              3139.3070
 Red. masses --      1.0888                 1.0924                 1.1066
 Frc consts  --      6.2697                 6.3041                 6.4256
 IR Inten    --     61.4856                32.0210                42.1628

                    127                    128                    129
                      A                      A                      A
 Frequencies --   3144.2060              3187.7916              3200.0120
 Red. masses --      1.0952                 1.0870                 1.0904
 Frc consts  --      6.3792                 6.5082                 6.5785
 IR Inten    --     36.9226                 0.8134                 6.8224

                    130                    131                    132
                      A                      A                      A
 Frequencies --   3206.4314              3216.5358              3241.4441
 Red. masses --      1.0947                 1.0964                 1.0910
 Frc consts  --      6.6314                 6.6834                 6.7541
 IR Inten    --     11.4116                 7.8801                 5.6324

 - Thermochemistry -
 -------------------
 Temperature   298.150 Kelvin.  Pressure   1.00000 Atm.
 Atom     1 has atomic number  6 and mass  12.00000

 Molecular mass:   434.99839 amu.
 Principal axes and moments of inertia in atomic units:
                           1         2         3
     Eigenvalues --  ******************************
           X            0.99883   0.04442   0.01888
           Y           -0.04435   0.99901  -0.00373
           Z           -0.01903   0.00289   0.99981
 This molecule is an asymmetric top.
 Rotational symmetry number  1.
 Warning -- assumption of classical behavior for rotation
           may cause significant error
 Rotational temperatures (Kelvin)      0.00850     0.00659     0.00601
 Rotational constants (GHZ):           0.17705     0.13732     0.12528
 Zero-point vibrational energy     944084.3 (Joules/Mol)
                                  225.64156 (Kcal/Mol)
 Warning -- explicit consideration of  42 degrees of freedom as
           vibrations may cause significant error
 Vibrational temperatures:     26.30    28.14    43.08    58.05    66.84
          (Kelvin)             70.47    80.00    87.90    99.28   105.08
                              112.44   125.70   131.11   140.09   151.93
                              161.77   176.99   186.93   197.29   218.71
                              255.26   273.83   288.27   314.59   369.76
                              375.54   411.41   448.36   472.75   480.45
                              501.76   531.47   544.92   556.46   559.65
                              586.06   598.22   613.84   638.59   698.16
                              771.79   814.93   894.42   905.81   963.62
                             1000.63  1055.85  1072.29  1093.38  1144.85
                             1166.20  1182.09  1209.52  1222.97  1227.06
                             1270.91  1371.49  1386.14  1398.81  1407.83
                             1439.19  1441.23  1451.96  1456.03  1479.10
                             1488.01  1508.15  1513.07  1533.86  1559.49
                             1578.68  1618.33  1622.23  1630.05  1680.17
                             1688.34  1694.26  1730.37  1742.45  1791.84
                             1819.04  1847.31  1849.00  1892.10  1897.89
                             1924.70  1953.33  1977.03  1980.46  1985.72
                             1990.03  2008.34  2020.71  2028.45  2093.96
                             2105.15  2107.80  2114.32  2117.40  2121.13
                             2122.49  2127.46  2149.99  2158.79  2186.59
                             2250.88  2326.70  2364.24  2487.55  2511.46
                             4328.88  4346.19  4369.45  4380.73  4401.00
                             4403.18  4416.42  4416.88  4442.37  4472.51
                             4484.25  4485.35  4495.46  4497.92  4502.87
                             4516.76  4523.81  4586.52  4604.10  4613.34
                             4627.88  4663.72

 Zero-point correction=                           0.359583 (Hartree/Particle)
 Thermal correction to Energy=                    0.388441
 Thermal correction to Enthalpy=                  0.389386
 Thermal correction to Gibbs Free Energy=         0.293491
 Sum of electronic and zero-point Energies=          -3531.226087
 Sum of electronic and thermal Energies=             -3531.197228
 Sum of electronic and thermal Enthalpies=           -3531.196284
 Sum of electronic and thermal Free Energies=        -3531.292178

                     E (Thermal)             CV                S
                      KCal/Mol        Cal/Mol-Kelvin    Cal/Mol-Kelvin
 Total                  243.751             99.768            201.827
 Electronic               0.000              0.000              3.561
 Translational            0.889              2.981             44.100
 Rotational               0.889              2.981             35.910
 Vibrational            241.973             93.807            118.255
 Vibration     1          0.593              1.986              6.813
 Vibration     2          0.593              1.986              6.678
 Vibration     3          0.594              1.984              5.833
 Vibration     4          0.594              1.981              5.242
 Vibration     5          0.595              1.979              4.963
 Vibration     6          0.595              1.978              4.858
 Vibration     7          0.596              1.975              4.608
 Vibration     8          0.597              1.973              4.421
 Vibration     9          0.598              1.969              4.182
 Vibration    10          0.599              1.967              4.070
 Vibration    11          0.599              1.964              3.937
 Vibration    12          0.601              1.958              3.718
 Vibration    13          0.602              1.955              3.636
 Vibration    14          0.603              1.951              3.506
 Vibration    15          0.605              1.945              3.348
 Vibration    16          0.607              1.939              3.226
 Vibration    17          0.610              1.930              3.053
 Vibration    18          0.612              1.923              2.947
 Vibration    19          0.614              1.916              2.844
 Vibration    20          0.619              1.900              2.647
 Vibration    21          0.628              1.870              2.355
 Vibration    22          0.634              1.853              2.225
 Vibration    23          0.638              1.839              2.130
 Vibration    24          0.646              1.813              1.970
 Vibration    25          0.667              1.751              1.682
 Vibration    26          0.669              1.744              1.655
 Vibration    27          0.684              1.700              1.498
 Vibration    28          0.700              1.652              1.354
 Vibration    29          0.712              1.618              1.267
 Vibration    30          0.715              1.608              1.241
 Vibration    31          0.726              1.578              1.172
 Vibration    32          0.742              1.535              1.082
 Vibration    33          0.749              1.515              1.044
 Vibration    34          0.755              1.498              1.013
 Vibration    35          0.757              1.494              1.004
 Vibration    36          0.772              1.454              0.936
 Vibration    37          0.779              1.436              0.906
 Vibration    38          0.788              1.412              0.870
 Vibration    39          0.803              1.374              0.815
 Vibration    40          0.841              1.283              0.696
 Vibration    41          0.891              1.169              0.573
 Vibration    42          0.922              1.104              0.511

 Normal termination of Gaussian 16 at Sun Jul 11 01:08:54 2021.
