 Gaussian 16, Revision A.03,
 Gaussian 16:  ES64L-G16RevA.03 25-Dec-2016

 ----------------------------------------------------------------------
 #p opt=(calcfc,ts,noeigentest,maxstep=5) freq=noraman b3lyp scrf=(solv
 ent=water,pcm) pop=none empiricaldispersion=gd3bj jul-cc-pvdz
 ----------------------------------------------------------------------

 -----
 title
 -----
 Symbolic Z-matrix:
 Charge =  0 Multiplicity = 6

 SCF Done:  E(UB3LYP) =  -3531.56709422     A.U. after   24 cycles
 SCF Done:  E(UB3LYP) =  -3531.56709413     A.U. after   10 cycles
 Optimization completed.
    -- Stationary point found.
 Normal termination of Gaussian 16 at Tue Jul 13 17:02:44 2021.

 ----------------------------------------------------------------------
 #P Geom=AllCheck Guess=TCheck SCRF=Check GenChk UB3LYP/Jul-CC-pVDZ Fre
 q
 ----------------------------------------------------------------------

 Structure from the checkpoint file:  "/scratch/kwaneu.3017182.bmbhpcps002/Gau-56315.chk"
 -----
 title
 -----
 Charge =  0 Multiplicity = 6

                         Standard orientation:
 ---------------------------------------------------------------------
 Center     Atomic      Atomic             Coordinates (Angstroms)
 Number     Number       Type             X           Y           Z
 ---------------------------------------------------------------------
      1          6           0        2.859291    1.337879   -0.405592
      2          6           0        1.593232    0.803680   -0.691698
      3          6           0        1.430877    0.020666   -1.839044
      4          6           0        2.516588   -0.232192   -2.682982
      5          6           0        3.776673    0.294558   -2.389260
      6          6           0        3.944010    1.083400   -1.244976
      7          6           0        0.434538    1.036763    0.264553
      8          6           0        0.713466    0.526311    1.735658
      9          6           0        0.870841    1.765182    2.619805
     10          6           0       -0.109503    2.764770    1.997932
     11          6           0        0.158097    2.608148    0.501062
     12          6           0       -0.895988    2.916062   -0.479526
     13          6           0       -0.526180    3.072591   -1.885938
     14          8           0       -0.764305    0.520441   -0.258674
     15         26           0       -1.954322   -0.876416   -0.170018
     16         17           0       -1.408095   -2.501404   -1.648678
     17          6           0       -2.274756    3.167851   -0.064592
     18         17           0       -3.944764    0.022163   -0.774862
     19         17           0       -2.122299   -1.798651    1.886704
     20          1           0        0.457652   -0.406937   -2.061986
     21          1           0        2.374320   -0.848035   -3.571675
     22          1           0        4.623969    0.095663   -3.046348
     23          1           0        4.921719    1.502135   -1.005028
     24          1           0        3.012397    1.950763    0.482258
     25          1           0       -0.197249   -0.011315    2.023883
     26          6           0        1.849439   -0.466758    1.820407
     27          1           0        0.647754    1.547851    3.670460
     28          1           0        1.900468    2.143020    2.570372
     29          1           0       -1.137366    2.478139    2.252351
     30          1           0        0.047167    3.796335    2.333021
     31          1           0        1.068100    3.148352    0.211012
     32          1           0       -2.968625    3.259967   -0.902813
     33          1           0       -2.612471    2.401095    0.644460
     34          1           0       -2.256003    4.112117    0.513121
     35          1           0       -0.477258    4.172317   -2.030275
     36          1           0        0.456252    2.659911   -2.130456
     37          1           0       -1.315826    2.712763   -2.555692
     38          8           0        1.581059   -1.555552    1.089533
     39          8           0        2.875058   -0.308304    2.457138
     40          6           0        2.653957   -2.523448    0.925012
     41          6           0        2.195679   -3.530259   -0.107150
     42          1           0        3.551806   -1.980810    0.603094
     43          1           0        2.855085   -2.986051    1.900088
     44          1           0        2.984139   -4.281148   -0.254512
     45          1           0        1.282110   -4.042905    0.222161
     46          1           0        1.995859   -3.036154   -1.066842
 ---------------------------------------------------------------------

 SCF Done:  E(UB3LYP) =  -3531.56709413     A.U. after    2 cycles

 Isotropic polarizability for W=    0.000000      425.30 Bohr**3.
 End of Minotr F.D. properties file   721 does not exist.

 ******    1 imaginary frequencies (negative Signs) ******

                      1                      2                      3
                      A                      A                      A
 Frequencies --    -80.7553                34.6495                35.7517
 Red. masses --      3.4543                 4.5102                 3.5877
 Frc consts  --      0.0133                 0.0032                 0.0027
 IR Inten    --     32.2103                 0.9301                 3.4898

                      4                      5                      6
                      A                      A                      A
 Frequencies --     49.4969                52.7382                62.5405
 Red. masses --      5.2304                 5.5174                 7.5213
 Frc consts  --      0.0075                 0.0090                 0.0173
 IR Inten    --      1.3379                 1.7155                 0.5379

                      7                      8                      9
                      A                      A                      A
 Frequencies --     66.7817                75.5101                81.2013
 Red. masses --      3.1264                 3.8225                 3.7823
 Frc consts  --      0.0082                 0.0128                 0.0147
 IR Inten    --      1.1528                 0.2843                 1.9218

                     10                     11                     12
                      A                      A                      A
 Frequencies --     90.3206                94.8130               101.3295
 Red. masses --      4.0196                 3.8679                 8.7999
 Frc consts  --      0.0193                 0.0205                 0.0532
 IR Inten    --      4.6441                 8.6402                 5.4483

                     13                     14                     15
                      A                      A                      A
 Frequencies --    105.5981               121.1946               126.4082
 Red. masses --     19.2079                 5.6401                 6.2735
 Frc consts  --      0.1262                 0.0488                 0.0591
 IR Inten    --      1.1419                 8.5046                 5.7371

                     16                     17                     18
                      A                      A                      A
 Frequencies --    133.0565               137.5396               141.6380
 Red. masses --      3.0934                 3.1803                 2.2769
 Frc consts  --      0.0323                 0.0354                 0.0269
 IR Inten    --      0.5421                 3.7140                 2.6956

                     19                     20                     21
                      A                      A                      A
 Frequencies --    152.8536               177.1570               193.3698
 Red. masses --      3.2401                 1.7913                 2.4195
 Frc consts  --      0.0446                 0.0331                 0.0533
 IR Inten    --      0.5932                26.9415                 8.0041

                     22                     23                     24
                      A                      A                      A
 Frequencies --    214.0593               230.5238               257.8052
 Red. masses --      3.6724                 2.7783                 1.8602
 Frc consts  --      0.0991                 0.0870                 0.0728
 IR Inten    --     20.3365                17.9891                 6.6272

                     25                     26                     27
                      A                      A                      A
 Frequencies --    265.4346               278.4070               287.2777
 Red. masses --      2.8752                 5.1418                 4.6772
 Frc consts  --      0.1194                 0.2348                 0.2274
 IR Inten    --     13.6891                 8.5777                 7.7077

                     28                     29                     30
                      A                      A                      A
 Frequencies --    303.0958               322.5728               335.7534
 Red. masses --      3.4602                 5.6517                 5.8968
 Frc consts  --      0.1873                 0.3465                 0.3917
 IR Inten    --      4.8421               113.4582               121.5530

                     31                     32                     33
                      A                      A                      A
 Frequencies --    341.1285               353.4322               365.1701
 Red. masses --     17.1602                33.6838                 4.1097
 Frc consts  --      1.1765                 2.4790                 0.3229
 IR Inten    --    115.1711               204.8452                14.7432

                     34                     35                     36
                      A                      A                      A
 Frequencies --    375.0830               411.9983               414.9715
 Red. masses --      4.3944                 2.8965                 3.3421
 Frc consts  --      0.3643                 0.2897                 0.3391
 IR Inten    --     24.1349                 1.9882                28.4888

                     37                     38                     39
                      A                      A                      A
 Frequencies --    440.1893               475.1018               493.5327
 Red. masses --      3.9627                 3.4313                 2.7792
 Frc consts  --      0.4524                 0.4563                 0.3988
 IR Inten    --     11.4629                 4.1130                 7.5404

                     40                     41                     42
                      A                      A                      A
 Frequencies --    535.6867               558.2766               593.0991
 Red. masses --      2.8801                 3.0942                 3.7422
 Frc consts  --      0.4869                 0.5682                 0.7756
 IR Inten    --     15.8977                16.9299                44.5107

                     43                     44                     45
                      A                      A                      A
 Frequencies --    629.3017               645.7151               705.2503
 Red. masses --      6.2540                 3.8154                 1.6457
 Frc consts  --      1.4592                 0.9373                 0.4823
 IR Inten    --      0.2392                 8.5840                79.3862

                     46                     47                     48
                      A                      A                      A
 Frequencies --    713.1094               739.0129               765.6882
 Red. masses --      3.7829                 3.0535                 1.2337
 Frc consts  --      1.1334                 0.9826                 0.4262
 IR Inten    --     55.2454                66.0375                17.4206

                     49                     50                     51
                      A                      A                      A
 Frequencies --    772.5995               782.5480               811.3576
 Red. masses --      2.8646                 4.9987                 1.1155
 Frc consts  --      1.0075                 1.8035                 0.4327
 IR Inten    --     19.4282                69.8645                 0.7958

                     52                     53                     54
                      A                      A                      A
 Frequencies --    833.9917               847.2703               868.4302
 Red. masses --      2.9227                 1.2690                 2.4232
 Frc consts  --      1.1977                 0.5367                 1.0767
 IR Inten    --     20.3909                 2.4024                19.4971

                     55                     56                     57
                      A                      A                      A
 Frequencies --    884.8788               905.3310               932.1631
 Red. masses --      2.3476                 2.3979                 2.0128
 Frc consts  --      1.0830                 1.1580                 1.0305
 IR Inten    --     77.5299                20.5391                 2.6008

                     58                     59                     60
                      A                      A                      A
 Frequencies --    940.6073               964.6367               984.7360
 Red. masses --      2.4872                 2.1934                 1.5634
 Frc consts  --      1.2965                 1.2025                 0.8932
 IR Inten    --     29.5285                36.4635                22.9438

                     61                     62                     63
                      A                      A                      A
 Frequencies --    988.4899              1002.2299              1003.4080
 Red. masses --      1.7748                 1.3352                 1.9310
 Frc consts  --      1.0218                 0.7902                 1.1455
 IR Inten    --     38.0667                 2.5247                32.6299

                     64                     65                     66
                      A                      A                      A
 Frequencies --   1011.5016              1016.1751              1022.2779
 Red. masses --      4.9220                 1.7164                 2.0500
 Frc consts  --      2.9670                 1.0443                 1.2622
 IR Inten    --      7.1433                26.6066                35.1573

                     67                     68                     69
                      A                      A                      A
 Frequencies --   1040.9613              1047.0635              1051.0103
 Red. masses --      2.7887                 2.3799                 2.1240
 Frc consts  --      1.7804                 1.5373                 1.3823
 IR Inten    --    110.3443                71.0804                 7.6427

                     70                     71                     72
                      A                      A                      A
 Frequencies --   1063.3840              1094.7525              1113.4285
 Red. masses --      2.7872                 2.1739                 1.8900
 Frc consts  --      1.8569                 1.5351                 1.3805
 IR Inten    --     58.8847               191.0736                88.9716

                     73                     74                     75
                      A                      A                      A
 Frequencies --   1126.3606              1132.8671              1160.9911
 Red. masses --      2.9719                 2.2014                 1.3594
 Frc consts  --      2.2214                 1.6646                 1.0796
 IR Inten    --     17.5054                14.4944                99.6243

                     76                     77                     78
                      A                      A                      A
 Frequencies --   1165.6703              1168.0102              1168.0872
 Red. masses --      1.8197                 1.3771                 1.1921
 Frc consts  --      1.4568                 1.1069                 0.9583
 IR Inten    --    114.8234                 5.7259                 2.8683

                     79                     80                     81
                      A                      A                      A
 Frequencies --   1198.1263              1207.0048              1235.2082
 Red. masses --      1.1382                 2.2611                 1.6123
 Frc consts  --      0.9626                 1.9408                 1.4494
 IR Inten    --      6.8208               131.2270               169.8264

                     82                     83                     84
                      A                      A                      A
 Frequencies --   1239.5606              1255.9222              1284.4184
 Red. masses --      2.5052                 1.7658                 1.1049
 Frc consts  --      2.2679                 1.6411                 1.0740
 IR Inten    --    256.6591                86.8102                 2.2857

                     85                     86                     87
                      A                      A                      A
 Frequencies --   1307.0416              1310.3620              1313.7207
 Red. masses --      1.4125                 1.2425                 1.5011
 Frc consts  --      1.4217                 1.2570                 1.5264
 IR Inten    --     94.1778                50.1660                89.1389

                     88                     89                     90
                      A                      A                      A
 Frequencies --   1321.0184              1335.2162              1338.8284
 Red. masses --      1.2894                 1.6541                 1.3402
 Frc consts  --      1.3257                 1.7374                 1.4154
 IR Inten    --     70.3796                 9.3949                52.1851

                     91                     92                     93
                      A                      A                      A
 Frequencies --   1349.3422              1359.1714              1366.7066
 Red. masses --      1.6137                 3.2844                 1.3770
 Frc consts  --      1.7311                 3.5748                 1.5154
 IR Inten    --    142.1071                 1.9228                22.1265

                     94                     95                     96
                      A                      A                      A
 Frequencies --   1389.2252              1402.9403              1412.1559
 Red. masses --      1.5555                 1.2384                 1.5460
 Frc consts  --      1.7688                 1.4361                 1.8165
 IR Inten    --     95.4514                15.6363                14.4584

                     97                     98                     99
                      A                      A                      A
 Frequencies --   1424.7266              1439.2301              1465.5549
 Red. masses --      1.1186                 1.6398                 1.0419
 Frc consts  --      1.3378                 2.0012                 1.3185
 IR Inten    --     29.3082                51.8292                 6.6937

                    100                    101                    102
                      A                      A                      A
 Frequencies --   1470.8142              1473.1667              1480.8550
 Red. masses --      2.3007                 1.0538                 1.1143
 Frc consts  --      2.9325                 1.3474                 1.4397
 IR Inten    --     29.1288                 4.1044                 4.4754

                    103                    104                    105
                      A                      A                      A
 Frequencies --   1486.8113              1490.6319              1498.4133
 Red. masses --      1.1916                 1.2307                 1.2629
 Frc consts  --      1.5520                 1.6112                 1.6707
 IR Inten    --     39.0094                20.7686                 7.3349

                    106                    107                    108
                      A                      A                      A
 Frequencies --   1501.1343              1520.8391              1626.1782
 Red. masses --      1.0997                 2.2151                 5.9412
 Frc consts  --      1.4600                 3.0186                 9.2568
 IR Inten    --     12.2002                12.0725                 0.6911

                    109                    110                    111
                      A                      A                      A
 Frequencies --   1645.7065              1739.3821              2980.0134
 Red. masses --      5.8454                12.0755                 1.0560
 Frc consts  --      9.3275                21.5252                 5.5250
 IR Inten    --      1.8564               565.0693                58.3907

                    112                    113                    114
                      A                      A                      A
 Frequencies --   3001.5613              3041.9044              3062.0934
 Red. masses --      1.0538                 1.0349                 1.0576
 Frc consts  --      5.5936                 5.6421                 5.8424
 IR Inten    --     47.7747                21.7074                31.2037

                    115                    116                    117
                      A                      A                      A
 Frequencies --   3065.3878              3068.6253              3080.2144
 Red. masses --      1.0640                 1.0625                 1.0815
 Frc consts  --      5.8906                 5.8948                 6.0455
 IR Inten    --     37.5233                27.8295                11.2263

                    118                    119                    120
                      A                      A                      A
 Frequencies --   3089.1600              3096.0509              3098.3249
 Red. masses --      1.0822                 1.0760                 1.0717
 Frc consts  --      6.0845                 6.0771                 6.0616
 IR Inten    --     14.3192                 5.0455                12.3638

                    121                    122                    123
                      A                      A                      A
 Frequencies --   3108.9872              3119.2268              3120.8669
 Red. masses --      1.1067                 1.1028                 1.1018
 Frc consts  --      6.3028                 6.3218                 6.3226
 IR Inten    --      4.3572                27.6075                37.6624

                    124                    125                    126
                      A                      A                      A
 Frequencies --   3127.7588              3132.6868              3172.9739
 Red. masses --      1.1058                 1.1063                 1.0854
 Frc consts  --      6.3738                 6.3966                 6.4382
 IR Inten    --     32.1807                56.6018                 0.8296

                    127                    128                    129
                      A                      A                      A
 Frequencies --   3176.1695              3181.0919              3184.0482
 Red. masses --      1.1074                 1.0889                 1.1043
 Frc consts  --      6.5819                 6.4925                 6.5963
 IR Inten    --      9.1107                11.3959                12.4570

                    130                    131                    132
                      A                      A                      A
 Frequencies --   3190.3770              3199.3685              3230.5738
 Red. masses --      1.0932                 1.0982                 1.0919
 Frc consts  --      6.5560                 6.6232                 6.7139
 IR Inten    --     33.4473                21.8179                 6.4691

 - Thermochemistry -
 -------------------
 Temperature   298.150 Kelvin.  Pressure   1.00000 Atm.
 Atom     1 has atomic number  6 and mass  12.00000

 Molecular mass:   434.99839 amu.
 Principal axes and moments of inertia in atomic units:
                           1         2         3
     Eigenvalues --  8383.15873********************
           X            0.99627  -0.08510  -0.01434
           Y            0.08525   0.99631   0.01018
           Z            0.01342  -0.01137   0.99985
 This molecule is an asymmetric top.
 Rotational symmetry number  1.
 Warning -- assumption of classical behavior for rotation
           may cause significant error
 Rotational temperatures (Kelvin)      0.01033     0.00785     0.00678
 Rotational constants (GHZ):           0.21528     0.16358     0.14137
    1 imaginary frequencies ignored.
 Zero-point vibrational energy     941501.3 (Joules/Mol)
                                  225.02421 (Kcal/Mol)
 Warning -- explicit consideration of  41 degrees of freedom as
           vibrations may cause significant error
 Vibrational temperatures:     49.85    51.44    71.22    75.88    89.98
          (Kelvin)             96.08   108.64   116.83   129.95   136.41
                              145.79   151.93   174.37   181.87   191.44
                              197.89   203.79   219.92   254.89   278.22
                              307.98   331.67   370.92   381.90   400.57
                              413.33   436.09   464.11   483.07   490.81
                              508.51   525.40   539.66   592.77   597.05
                              633.33   683.57   710.08   770.73   803.24
                              853.34   905.42   929.04  1014.70  1026.01
                             1063.27  1101.65  1111.60  1125.91  1167.36
                             1199.93  1219.03  1249.48  1273.14  1302.57
                             1341.17  1353.32  1387.90  1416.82  1422.22
                             1441.99  1443.68  1455.33  1462.05  1470.83
                             1497.71  1506.49  1512.17  1529.97  1575.10
                             1601.98  1620.58  1629.94  1670.41  1677.14
                             1680.51  1680.62  1723.84  1736.61  1777.19
                             1783.45  1806.99  1847.99  1880.54  1885.32
                             1890.15  1900.65  1921.08  1926.28  1941.40
                             1955.54  1966.39  1998.79  2018.52  2031.78
                             2049.86  2070.73  2108.61  2116.17  2119.56
                             2130.62  2139.19  2144.69  2155.88  2159.80
                             2188.15  2339.71  2367.80  2502.58  4287.57
                             4318.58  4376.62  4405.67  4410.41  4415.07
                             4431.74  4444.61  4454.53  4457.80  4473.14
                             4487.87  4490.23  4500.15  4507.24  4565.20
                             4569.80  4576.88  4581.14  4590.24  4603.18
                             4648.08

 Zero-point correction=                           0.358599 (Hartree/Particle)
 Thermal correction to Energy=                    0.385671
 Thermal correction to Enthalpy=                  0.386615
 Thermal correction to Gibbs Free Energy=         0.298292
 Sum of electronic and zero-point Energies=          -3531.208495
 Sum of electronic and thermal Energies=             -3531.181423
 Sum of electronic and thermal Enthalpies=           -3531.180479
 Sum of electronic and thermal Free Energies=        -3531.268802

                     E (Thermal)             CV                S
                      KCal/Mol        Cal/Mol-Kelvin    Cal/Mol-Kelvin
 Total                  242.012             97.168            185.891
 Electronic               0.000              0.000              3.561
 Translational            0.889              2.981             44.100
 Rotational               0.889              2.981             35.422
 Vibrational            240.235             91.206            102.808
 Vibration     1          0.594              1.983              5.544
 Vibration     2          0.594              1.982              5.482
 Vibration     3          0.595              1.978              4.837
 Vibration     4          0.596              1.977              4.712
 Vibration     5          0.597              1.972              4.375
 Vibration     6          0.598              1.970              4.246
 Vibration     7          0.599              1.965              4.004
 Vibration     8          0.600              1.962              3.862
 Vibration     9          0.602              1.956              3.653
 Vibration    10          0.603              1.953              3.558
 Vibration    11          0.604              1.948              3.429
 Vibration    12          0.605              1.945              3.348
 Vibration    13          0.609              1.932              3.081
 Vibration    14          0.611              1.927              3.000
 Vibration    15          0.613              1.920              2.901
 Vibration    16          0.614              1.916              2.838
 Vibration    17          0.615              1.912              2.782
 Vibration    18          0.619              1.900              2.636
 Vibration    19          0.628              1.870              2.358
 Vibration    20          0.635              1.849              2.195
 Vibration    21          0.644              1.820              2.009
 Vibration    22          0.652              1.794              1.875
 Vibration    23          0.667              1.750              1.677
 Vibration    24          0.671              1.736              1.626
 Vibration    25          0.679              1.713              1.543
 Vibration    26          0.684              1.697              1.490
 Vibration    27          0.695              1.668              1.400
 Vibration    28          0.708              1.630              1.297
 Vibration    29          0.717              1.604              1.232
 Vibration    30          0.721              1.593              1.207
 Vibration    31          0.730              1.568              1.151
 Vibration    32          0.738              1.544              1.100
 Vibration    33          0.746              1.523              1.059
 Vibration    34          0.776              1.444              0.920
 Vibration    35          0.778              1.438              0.909
 Vibration    36          0.800              1.383              0.826
 Vibration    37          0.832              1.305              0.723
 Vibration    38          0.849              1.264              0.674
 Vibration    39          0.891              1.171              0.575
 Vibration    40          0.914              1.122              0.527
 Vibration    41          0.951              1.046              0.462

 Optimization completed.
    -- Stationary point found.
 Normal termination of Gaussian 16 at Wed Jul 14 01:44:20 2021.
