 Gaussian 16, Revision A.03,
 Gaussian 16:  ES64L-G16RevA.03 25-Dec-2016

 ----------------------------------------------------------------------
 #p opt=(calcfc,maxstep=1) freq=noraman b3lyp scrf=(solvent=water,pcm)
 pop=none empiricaldispersion=gd3bj jul-cc-pvdz
 ----------------------------------------------------------------------

 -----
 title
 -----
 Symbolic Z-matrix:
 Charge =  0 Multiplicity = 6

 SCF Done:  E(UB3LYP) =  -3531.55877661     A.U. after   25 cycles
 SCF Done:  E(UB3LYP) =  -3531.55879082     A.U. after   10 cycles
 SCF Done:  E(UB3LYP) =  -3531.55877496     A.U. after   12 cycles
 SCF Done:  E(UB3LYP) =  -3531.55877708     A.U. after   12 cycles
 Optimization completed.
    -- Stationary point found.
 Normal termination of Gaussian 16 at Sun Jul  4 01:30:14 2021.

 ----------------------------------------------------------------------
 #P Geom=AllCheck Guess=TCheck SCRF=Check GenChk UB3LYP/Jul-CC-pVDZ Fre
 q
 ----------------------------------------------------------------------

 Structure from the checkpoint file:  "/scratch/kwaneu.7348932.ktchpcps002/Gau-44120.chk"
 -----
 title
 -----
 Charge =  0 Multiplicity = 6

                         Standard orientation:
 ---------------------------------------------------------------------
 Center     Atomic      Atomic             Coordinates (Angstroms)
 Number     Number       Type             X           Y           Z
 ---------------------------------------------------------------------
      1          6           0       -2.905911   -1.600123    0.546824
      2          6           0       -1.856981   -1.051370   -0.201359
      3          6           0       -2.142232   -0.534018   -1.473203
      4          6           0       -3.447308   -0.526300   -1.966994
      5          6           0       -4.494117   -1.051732   -1.202235
      6          6           0       -4.215257   -1.595231    0.053757
      7          6           0       -0.393611   -1.064706    0.261502
      8          6           0        0.305983   -2.367971   -0.344792
      9          6           0        0.927833   -3.139468    0.827387
     10          6           0        0.095831   -2.754051    2.052288
     11          6           0       -0.290422   -1.232283    1.822153
     12          6           0        0.764643   -0.510682    2.532422
     13          6           0        2.122018   -0.331629    2.031751
     14          8           0        0.272798    0.091123   -0.166886
     15         26           0       -0.020534    1.902269   -0.108491
     16         17           0        1.840568    2.969023    0.642701
     17          6           0        0.421563    0.065388    3.836390
     18         17           0       -0.464996    2.674128   -2.184564
     19         17           0       -1.706487    2.239486    1.354148
     20          1           0       -1.336909   -0.119956   -2.074737
     21          1           0       -3.646449   -0.104402   -2.952890
     22          1           0       -5.516000   -1.040540   -1.583093
     23          1           0       -5.017638   -2.016227    0.660532
     24          1           0       -2.733628   -2.043790    1.525606
     25          1           0       -0.482080   -2.971325   -0.802863
     26          6           0        1.228470   -1.965052   -1.475174
     27          1           0        1.978854   -2.871407    0.966392
     28          1           0        0.892288   -4.222748    0.660225
     29          1           0        0.613003   -2.941803    3.001034
     30          1           0       -0.856698   -3.295854    2.094247
     31          1           0       -1.244016   -1.009389    2.302833
     32          1           0       -0.293143   -0.559183    4.387933
     33          1           0       -0.140255    0.986378    3.571173
     34          1           0        1.289430    0.337581    4.442729
     35          1           0        2.843438   -0.604959    2.816685
     36          1           0        2.242779    0.766952    1.916876
     37          1           0        2.337280   -0.797893    1.073468
     38          8           0        2.466173   -1.672515   -1.056077
     39          8           0        0.872494   -1.883148   -2.637075
     40          6           0        3.379516   -1.115060   -2.042267
     41          6           0        4.657723   -0.752304   -1.318535
     42          1           0        2.895339   -0.240343   -2.494526
     43          1           0        3.542336   -1.867395   -2.824510
     44          1           0        5.376069   -0.339324   -2.039986
     45          1           0        5.108200   -1.637256   -0.848880
     46          1           0        4.469068    0.004930   -0.545506
 ---------------------------------------------------------------------

 SCF Done:  E(UB3LYP) =  -3531.55877708     A.U. after    2 cycles

 Isotropic polarizability for W=    0.000000      418.69 Bohr**3.
 End of Minotr F.D. properties file   721 does not exist.

                      1                      2                      3
                      A                      A                      A
 Frequencies --     19.0512                34.6951                36.5909
 Red. masses --      4.8741                 4.1691                 5.4479
 Frc consts  --      0.0010                 0.0030                 0.0043
 IR Inten    --      4.6377                 1.0151                 0.1577

                      4                      5                      6
                      A                      A                      A
 Frequencies --     49.7446                53.0178                66.1073
 Red. masses --      3.7185                10.1954                 3.8803
 Frc consts  --      0.0054                 0.0169                 0.0100
 IR Inten    --      0.1722                 0.2791                 2.8417

                      7                      8                      9
                      A                      A                      A
 Frequencies --     74.2760                84.6354                93.4485
 Red. masses --      3.5188                 2.7004                 7.7731
 Frc consts  --      0.0114                 0.0114                 0.0400
 IR Inten    --      9.3778                 3.2890                11.1763

                     10                     11                     12
                      A                      A                      A
 Frequencies --     97.4115               100.2138               104.4226
 Red. masses --     15.9151                 8.3378                 6.7207
 Frc consts  --      0.0890                 0.0493                 0.0432
 IR Inten    --      0.8769                23.9939                 2.3373

                     13                     14                     15
                      A                      A                      A
 Frequencies --    124.9898               129.4955               134.3622
 Red. masses --      3.1805                 5.7552                 7.9612
 Frc consts  --      0.0293                 0.0569                 0.0847
 IR Inten    --      2.7955                 0.6141                 9.4691

                     16                     17                     18
                      A                      A                      A
 Frequencies --    137.5911               149.4060               156.0616
 Red. masses --     13.1874                 2.8775                 1.8411
 Frc consts  --      0.1471                 0.0378                 0.0264
 IR Inten    --      6.8706                16.9825                10.4119

                     19                     20                     21
                      A                      A                      A
 Frequencies --    182.6025               193.6598               198.3556
 Red. masses --      1.4846                 1.8465                 2.8803
 Frc consts  --      0.0292                 0.0408                 0.0668
 IR Inten    --      3.4580                24.9722                 0.7465

                     22                     23                     24
                      A                      A                      A
 Frequencies --    217.0313               236.5239               255.7235
 Red. masses --      3.7038                 2.4994                 3.7605
 Frc consts  --      0.1028                 0.0824                 0.1449
 IR Inten    --      0.9277                 3.1343                13.6405

                     25                     26                     27
                      A                      A                      A
 Frequencies --    264.0606               275.6337               294.5654
 Red. masses --      1.6935                 3.0111                 4.9582
 Frc consts  --      0.0696                 0.1348                 0.2535
 IR Inten    --      3.7010                 1.3500                 8.0511

                     28                     29                     30
                      A                      A                      A
 Frequencies --    310.5603               315.3671               340.4413
 Red. masses --      5.6950                 5.6445                17.5454
 Frc consts  --      0.3236                 0.3308                 1.1981
 IR Inten    --     17.0712                38.9987               108.3567

                     31                     32                     33
                      A                      A                      A
 Frequencies --    342.5348               354.0935               375.8958
 Red. masses --      7.5953                26.3129                 3.5302
 Frc consts  --      0.5251                 1.9438                 0.2939
 IR Inten    --    114.5557               198.6626                 5.8548

                     34                     35                     36
                      A                      A                      A
 Frequencies --    413.9800               419.3792               428.1004
 Red. masses --      3.0481                 4.8163                 5.7614
 Frc consts  --      0.3078                 0.4991                 0.6221
 IR Inten    --      1.7695                17.0772                17.6674

                     37                     38                     39
                      A                      A                      A
 Frequencies --    468.0569               476.0893               531.0496
 Red. masses --      3.2769                 2.6286                 2.6671
 Frc consts  --      0.4230                 0.3510                 0.4432
 IR Inten    --      7.7417                10.5190                15.4038

                     40                     41                     42
                      A                      A                      A
 Frequencies --    560.2456               568.1057               629.1532
 Red. masses --      2.7491                 3.3422                 5.2101
 Frc consts  --      0.5084                 0.6355                 1.2151
 IR Inten    --     66.1204                18.6989                15.3068

                     43                     44                     45
                      A                      A                      A
 Frequencies --    638.1423               686.1250               697.9444
 Red. masses --      4.1059                 4.6835                 4.8436
 Frc consts  --      0.9851                 1.2991                 1.3901
 IR Inten    --     55.1278                13.6870                29.3355

                     46                     47                     48
                      A                      A                      A
 Frequencies --    703.5336               755.2809               773.6764
 Red. masses --      1.4713                 4.7777                 2.6243
 Frc consts  --      0.4291                 1.6058                 0.9255
 IR Inten    --     96.9499                 1.0307                54.0437

                     49                     50                     51
                      A                      A                      A
 Frequencies --    789.4018               807.2431               809.8948
 Red. masses --      1.3667                 1.8564                 1.3515
 Frc consts  --      0.5018                 0.7127                 0.5223
 IR Inten    --     26.0855                 9.2086                 3.5363

                     52                     53                     54
                      A                      A                      A
 Frequencies --    837.0605               840.3962               854.6589
 Red. masses --      3.1158                 1.2960                 3.0744
 Frc consts  --      1.2863                 0.5393                 1.3231
 IR Inten    --     26.9884                 0.1734                90.3355

                     55                     56                     57
                      A                      A                      A
 Frequencies --    860.5290               877.2577               912.7766
 Red. masses --      3.1504                 2.5510                 1.8342
 Frc consts  --      1.3745                 1.1567                 0.9004
 IR Inten    --     15.8621                53.4390                32.3567

                     58                     59                     60
                      A                      A                      A
 Frequencies --    939.2687               949.7423               963.3982
 Red. masses --      2.8662                 2.3952                 2.0545
 Frc consts  --      1.4898                 1.2729                 1.1235
 IR Inten    --     11.4333                 4.4813                64.0063

                     61                     62                     63
                      A                      A                      A
 Frequencies --    982.1110               995.8017              1000.4768
 Red. masses --      1.3748                 2.2928                 1.3112
 Frc consts  --      0.7813                 1.3396                 0.7732
 IR Inten    --      0.8233                 7.0470                 0.6169

                     64                     65                     66
                      A                      A                      A
 Frequencies --   1003.7774              1008.2025              1019.7859
 Red. masses --      1.5040                 4.4632                 2.1350
 Frc consts  --      0.8928                 2.6729                 1.3082
 IR Inten    --     11.2260                 5.1422                 1.2528

                     67                     68                     69
                      A                      A                      A
 Frequencies --   1032.6657              1052.2350              1053.9161
 Red. masses --      3.1254                 2.9425                 2.3369
 Frc consts  --      1.9637                 1.9195                 1.5293
 IR Inten    --     79.4996               117.5839                 6.8724

                     70                     71                     72
                      A                      A                      A
 Frequencies --   1060.8970              1091.3194              1101.5236
 Red. masses --      2.5631                 2.8765                 1.8689
 Frc consts  --      1.6997                 2.0184                 1.3361
 IR Inten    --    187.4730               248.4158                28.1262

                     73                     74                     75
                      A                      A                      A
 Frequencies --   1121.4898              1130.6481              1150.7123
 Red. masses --      2.0591                 2.0759                 1.7816
 Frc consts  --      1.5259                 1.5636                 1.3900
 IR Inten    --     64.4587                20.7374                95.2798

                     76                     77                     78
                      A                      A                      A
 Frequencies --   1166.9001              1168.6540              1184.2909
 Red. masses --      1.5427                 1.0795                 1.3923
 Frc consts  --      1.2376                 0.8686                 1.1505
 IR Inten    --      6.8225                 0.2038                64.9479

                     79                     80                     81
                      A                      A                      A
 Frequencies --   1203.4832              1212.5984              1229.2506
 Red. masses --      1.2270                 1.9394                 1.4539
 Frc consts  --      1.0470                 1.6802                 1.2944
 IR Inten    --      2.3611                11.4259                49.4296

                     82                     83                     84
                      A                      A                      A
 Frequencies --   1265.5094              1273.8010              1281.5333
 Red. masses --      1.7682                 2.5774                 1.1345
 Frc consts  --      1.6684                 2.4640                 1.0978
 IR Inten    --     49.5257               372.4257                10.3822

                     85                     86                     87
                      A                      A                      A
 Frequencies --   1296.6970              1304.3263              1318.4581
 Red. masses --      1.5093                 1.3362                 1.5920
 Frc consts  --      1.4953                 1.3394                 1.6306
 IR Inten    --    276.8216                 2.8080               125.8631

                     88                     89                     90
                      A                      A                      A
 Frequencies --   1320.4278              1326.9074              1334.0273
 Red. masses --      1.2718                 1.1794                 1.8501
 Frc consts  --      1.3064                 1.2234                 1.9399
 IR Inten    --     33.2757                76.7579                30.6147

                     91                     92                     93
                      A                      A                      A
 Frequencies --   1357.2231              1366.7239              1371.1834
 Red. masses --      2.5036                 1.4736                 1.4823
 Frc consts  --      2.7171                 1.6218                 1.6420
 IR Inten    --      6.0105                 9.1914                36.3365

                     94                     95                     96
                      A                      A                      A
 Frequencies --   1379.2391              1408.8159              1409.3500
 Red. masses --      1.3689                 1.1556                 1.4295
 Frc consts  --      1.5342                 1.3513                 1.6729
 IR Inten    --     33.1322                29.6018                 1.3890

                     97                     98                     99
                      A                      A                      A
 Frequencies --   1421.7111              1450.8996              1468.4479
 Red. masses --      1.1167                 1.4514                 1.1587
 Frc consts  --      1.3299                 1.8002                 1.4721
 IR Inten    --     17.9931                75.3503                 5.6846

                    100                    101                    102
                      A                      A                      A
 Frequencies --   1468.5946              1473.2433              1475.4739
 Red. masses --      1.7234                 1.1753                 1.0548
 Frc consts  --      2.1900                 1.5029                 1.3530
 IR Inten    --      7.2375                22.4578                 5.3465

                    103                    104                    105
                      A                      A                      A
 Frequencies --   1492.8775              1498.8363              1500.0566
 Red. masses --      1.2760                 1.2071                 1.1563
 Frc consts  --      1.6756                 1.5977                 1.5329
 IR Inten    --     40.3379                18.0611                15.8869

                    106                    107                    108
                      A                      A                      A
 Frequencies --   1502.5405              1521.9511              1626.0665
 Red. masses --      1.1939                 2.1719                 5.8040
 Frc consts  --      1.5880                 2.9641                 9.0418
 IR Inten    --     35.0204                17.4526                 1.3457

                    109                    110                    111
                      A                      A                      A
 Frequencies --   1645.5335              1736.1035              2938.5944
 Red. masses --      5.8788                11.3631                 1.0608
 Frc consts  --      9.3788                20.1790                 5.3973
 IR Inten    --      4.5142               516.2237               228.8903

                    112                    113                    114
                      A                      A                      A
 Frequencies --   2965.7521              3040.5963              3064.3298
 Red. masses --      1.0579                 1.0350                 1.0710
 Frc consts  --      5.4825                 5.6378                 5.9256
 IR Inten    --     82.5134                23.1376                12.4881

                    115                    116                    117
                      A                      A                      A
 Frequencies --   3065.6418              3070.4436              3084.7897
 Red. masses --      1.0590                 1.0605                 1.0659
 Frc consts  --      5.8638                 5.8905                 5.9762
 IR Inten    --     26.0128                15.4337                29.4245

                    118                    119                    120
                      A                      A                      A
 Frequencies --   3089.4747              3108.6103              3114.9625
 Red. masses --      1.0731                 1.1059                 1.0954
 Frc consts  --      6.0349                 6.2966                 6.2621
 IR Inten    --      2.3331                 0.0490                 9.5886

                    121                    122                    123
                      A                      A                      A
 Frequencies --   3119.5955              3120.2382              3130.2086
 Red. masses --      1.0968                 1.1014                 1.1077
 Frc consts  --      6.2888                 6.3179                 6.3945
 IR Inten    --      4.6819                34.0765                65.1978

                    124                    125                    126
                      A                      A                      A
 Frequencies --   3142.6174              3145.3223              3171.3952
 Red. masses --      1.0871                 1.0983                 1.0853
 Frc consts  --      6.3256                 6.4018                 6.4310
 IR Inten    --      4.8582                17.1566                 1.1155

                    127                    128                    129
                      A                      A                      A
 Frequencies --   3178.5961              3180.2293              3192.6426
 Red. masses --      1.1054                 1.0899                 1.0941
 Frc consts  --      6.5804                 6.4945                 6.5709
 IR Inten    --     11.7065                16.5230                42.0633

                    130                    131                    132
                      A                      A                      A
 Frequencies --   3202.0073              3221.6402              3223.4815
 Red. masses --      1.0952                 1.0923                 1.0990
 Frc consts  --      6.6162                 6.6798                 6.7283
 IR Inten    --     19.9696                 1.5728                21.9364

 - Thermochemistry -
 -------------------
 Temperature   298.150 Kelvin.  Pressure   1.00000 Atm.
 Atom     1 has atomic number  6 and mass  12.00000

 Molecular mass:   434.99839 amu.
 Principal axes and moments of inertia in atomic units:
                           1         2         3
     Eigenvalues --  9562.67131********************
           X            0.99986  -0.01666  -0.00102
           Y            0.01663   0.99948  -0.02757
           Z            0.00148   0.02755   0.99962
 This molecule is an asymmetric top.
 Rotational symmetry number  1.
 Warning -- assumption of classical behavior for rotation
           may cause significant error
 Rotational temperatures (Kelvin)      0.00906     0.00829     0.00710
 Rotational constants (GHZ):           0.18873     0.17281     0.14798
 Zero-point vibrational energy     944042.2 (Joules/Mol)
                                  225.63150 (Kcal/Mol)
 Warning -- explicit consideration of  41 degrees of freedom as
           vibrations may cause significant error
 Vibrational temperatures:     27.41    49.92    52.65    71.57    76.28
          (Kelvin)             95.11   106.87   121.77   134.45   140.15
                              144.19   150.24   179.83   186.32   193.32
                              197.96   214.96   224.54   262.72   278.63
                              285.39   312.26   340.31   367.93   379.92
                              396.58   423.81   446.83   453.74   489.82
                              492.83   509.46   540.83   595.62   603.39
                              615.94   673.43   684.99   764.06   806.07
                              817.38   905.21   918.14   987.18  1004.19
                             1012.23  1086.68  1113.15  1135.77  1161.44
                             1165.26  1204.34  1209.14  1229.66  1238.11
                             1262.18  1313.28  1351.40  1366.47  1386.12
                             1413.04  1432.74  1439.46  1444.21  1450.58
                             1467.24  1485.78  1513.93  1516.35  1526.39
                             1570.17  1584.85  1613.57  1626.75  1655.62
                             1678.91  1681.43  1703.93  1731.54  1744.66
                             1768.62  1820.79  1832.72  1843.84  1865.66
                             1876.63  1896.97  1899.80  1909.12  1919.37
                             1952.74  1966.41  1972.83  1984.42  2026.97
                             2027.74  2045.53  2087.52  2112.77  2112.98
                             2119.67  2122.88  2147.92  2156.49  2158.25
                             2161.82  2189.75  2339.55  2367.56  2497.87
                             4227.98  4267.06  4374.74  4408.89  4410.77
                             4417.68  4438.32  4445.07  4472.60  4481.74
                             4488.40  4489.33  4503.67  4521.53  4525.42
                             4562.93  4573.29  4575.64  4593.50  4606.97
                             4635.22  4637.87

 Zero-point correction=                           0.359567 (Hartree/Particle)
 Thermal correction to Energy=                    0.387049
 Thermal correction to Enthalpy=                  0.387993
 Thermal correction to Gibbs Free Energy=         0.298085
 Sum of electronic and zero-point Energies=          -3531.199210
 Sum of electronic and thermal Energies=             -3531.171728
 Sum of electronic and thermal Enthalpies=           -3531.170784
 Sum of electronic and thermal Free Energies=        -3531.260692

                     E (Thermal)             CV                S
                      KCal/Mol        Cal/Mol-Kelvin    Cal/Mol-Kelvin
 Total                  242.877             98.535            189.226
 Electronic               0.000              0.000              3.561
 Translational            0.889              2.981             44.100
 Rotational               0.889              2.981             35.453
 Vibrational            241.099             92.573            106.113
 Vibration     1          0.593              1.986              6.731
 Vibration     2          0.594              1.983              5.541
 Vibration     3          0.594              1.982              5.436
 Vibration     4          0.595              1.978              4.828
 Vibration     5          0.596              1.976              4.702
 Vibration     6          0.598              1.970              4.266
 Vibration     7          0.599              1.966              4.037
 Vibration     8          0.601              1.960              3.780
 Vibration     9          0.602              1.954              3.587
 Vibration    10          0.603              1.951              3.505
 Vibration    11          0.604              1.949              3.450
 Vibration    12          0.605              1.946              3.370
 Vibration    13          0.610              1.928              3.022
 Vibration    14          0.612              1.924              2.954
 Vibration    15          0.613              1.919              2.883
 Vibration    16          0.614              1.916              2.837
 Vibration    17          0.618              1.903              2.680
 Vibration    18          0.620              1.896              2.597
 Vibration    19          0.630              1.863              2.302
 Vibration    20          0.635              1.849              2.193
 Vibration    21          0.637              1.842              2.148
 Vibration    22          0.646              1.815              1.984
 Vibration    23          0.655              1.785              1.829
 Vibration    24          0.666              1.753              1.691
 Vibration    25          0.671              1.739              1.635
 Vibration    26          0.677              1.718              1.561
 Vibration    27          0.689              1.684              1.448
 Vibration    28          0.699              1.654              1.359
 Vibration    29          0.703              1.644              1.334
 Vibration    30          0.720              1.595              1.210
 Vibration    31          0.722              1.590              1.200
 Vibration    32          0.730              1.567              1.148
 Vibration    33          0.747              1.521              1.056
 Vibration    34          0.778              1.440              0.913
 Vibration    35          0.782              1.428              0.894
 Vibration    36          0.790              1.409              0.865
 Vibration    37          0.825              1.321              0.743
 Vibration    38          0.833              1.303              0.721
 Vibration    39          0.886              1.181              0.585
 Vibration    40          0.916              1.117              0.523
 Vibration    41          0.924              1.100              0.508

 Optimization completed.
    -- Stationary point found.
 Normal termination of Gaussian 16 at Sun Jul  4 04:44:33 2021.
