                         Program Version 4.1.2  - RELEASE  -
|  1> ! aug-cc-pVTZ aug-cc-pVTZ/C DLPNO-CCSD(T1) TightSCF NormalPNO UNO MiniPrint AutoAux
|  2> %pal nproc 10 end
|  3> %maxcore 20000
|  4> %mdci
|  5>      density none
|  6> end
|  7>
|  8> * xyz 0 6
|  9>  O     -0.44062800     -0.15020100     -0.50519600
| 10>  C     -1.47624100     -1.17389600     -0.32562600
| 11>  C     -2.74429100     -0.12104500     -0.24781300
| 12>  C     -1.88121000      1.14205100     -0.26579400
| 13>  C     -1.80775400      1.93828100     -1.52097200
| 14> Fe      1.37360200      0.03077000      0.03240000
| 15> Cl      1.88718300      1.98098300     -0.85960000
| 16>  C     -1.54665000      1.84364100      1.00399700
| 17> Cl      2.38307100     -1.74407300     -0.75848200
| 18> Cl      1.40484100      0.13577000      2.23644000
| 19>  H     -3.29448300     -0.18509300     -1.19142500
| 20>  H     -2.41536000      2.46430800      1.27188900
| 21>  H     -1.35131100      1.15809500      1.82849500
| 22>  H     -0.68629300      2.50392200      0.87227700
| 23>  H     -2.63844800      2.66125600     -1.50211900
| 24>  H     -0.86914200      2.49569400     -1.57621600
| 25>  H     -1.91974100      1.31034700     -2.40648500
| 26>  C     -3.71419900     -0.27442600      0.91675600
| 27>  H     -4.47757300      0.51177800      0.89746800
| 28>  H     -4.23183100     -1.23579400      0.84194300
| 29>  H     -3.21498500     -0.23893300      1.88787600
| 30>  C     -1.23655000     -1.97391100      0.94107800
| 31>  H     -2.05439900     -2.68252600      1.10794700
| 32>  H     -0.30853400     -2.54640900      0.83686600
| 33>  H     -1.13428200     -1.33417800      1.81975000
| 34>  C     -1.51328500     -2.04850600     -1.56465600
| 35>  H     -0.56230700     -2.58180400     -1.66547500
| 36>  H     -2.32248400     -2.78423200     -1.49372400
| 37>  H     -1.66297800     -1.44354900     -2.46381300
| 38> *
| 39>
| 40>
| 41>                          ****END OF INPUT****

CARTESIAN COORDINATES (ANGSTROEM)
---------------------------------
  O     -0.440628   -0.150201   -0.505196
  C     -1.476241   -1.173896   -0.325626
  C     -2.744291   -0.121045   -0.247813
  C     -1.881210    1.142051   -0.265794
  C     -1.807754    1.938281   -1.520972
  Fe     1.373602    0.030770    0.032400
  Cl     1.887183    1.980983   -0.859600
  C     -1.546650    1.843641    1.003997
  Cl     2.383071   -1.744073   -0.758482
  Cl     1.404841    0.135770    2.236440
  H     -3.294483   -0.185093   -1.191425
  H     -2.415360    2.464308    1.271889
  H     -1.351311    1.158095    1.828495
  H     -0.686293    2.503922    0.872277
  H     -2.638448    2.661256   -1.502119
  H     -0.869142    2.495694   -1.576216
  H     -1.919741    1.310347   -2.406485
  C     -3.714199   -0.274426    0.916756
  H     -4.477573    0.511778    0.897468
  H     -4.231831   -1.235794    0.841943
  H     -3.214985   -0.238933    1.887876
  C     -1.236550   -1.973911    0.941078
  H     -2.054399   -2.682526    1.107947
  H     -0.308534   -2.546409    0.836866
  H     -1.134282   -1.334178    1.819750
  C     -1.513285   -2.048506   -1.564656
  H     -0.562307   -2.581804   -1.665475
  H     -2.322484   -2.784232   -1.493724
  H     -1.662978   -1.443549   -2.463813

ORBITAL ENERGIES
----------------
                 SPIN UP ORBITALS
  NO   OCC          E(Eh)            E(eV)
   0   1.0000    -261.554091     -7117.2487
   1   1.0000    -104.780144     -2851.2127
   2   1.0000    -104.778220     -2851.1603
   3   1.0000    -104.776976     -2851.1265
   4   1.0000     -32.222016      -876.8056
   5   1.0000     -27.698049      -753.7022
   6   1.0000     -27.697638      -753.6910
   7   1.0000     -27.697377      -753.6839
   8   1.0000     -20.575350      -559.8837
   9   1.0000     -11.395768      -310.0946
  10   1.0000     -11.335717      -308.4605
  11   1.0000     -11.290791      -307.2380
  12   1.0000     -11.273213      -306.7597
  13   1.0000     -11.272333      -306.7358
  14   1.0000     -11.261654      -306.4452
  15   1.0000     -11.237350      -305.7838
  16   1.0000     -11.236645      -305.7646
  17   1.0000     -10.506780      -285.9040
  18   1.0000     -10.504925      -285.8535
  19   1.0000     -10.503625      -285.8182
  20   1.0000      -7.973604      -216.9728
  21   1.0000      -7.972873      -216.9529
  22   1.0000      -7.972801      -216.9509
  23   1.0000      -7.971801      -216.9237
  24   1.0000      -7.970976      -216.9013
  25   1.0000      -7.970950      -216.9006
  26   1.0000      -7.970425      -216.8863
  27   1.0000      -7.969744      -216.8678
  28   1.0000      -7.969677      -216.8659
  29   1.0000      -4.577328      -124.5554
  30   1.0000      -3.189818       -86.7994
  31   1.0000      -3.189377       -86.7874
  32   1.0000      -3.188859       -86.7733
  33   1.0000      -1.365134       -37.1472
  34   1.0000      -1.159671       -31.5562
  35   1.0000      -1.092601       -29.7312
  36   1.0000      -1.052201       -28.6318
  37   1.0000      -1.046504       -28.4768
  38   1.0000      -1.044872       -28.4324
  39   1.0000      -1.034446       -28.1487
  40   1.0000      -1.006468       -27.3874
  41   1.0000      -0.965635       -26.2763
  42   1.0000      -0.933100       -25.3909
  43   1.0000      -0.906763       -24.6743
  44   1.0000      -0.906582       -24.6694
  45   1.0000      -0.903316       -24.5805
  46   1.0000      -0.897863       -24.4321
  47   1.0000      -0.897188       -24.4137
  48   1.0000      -0.801146       -21.8003
  49   1.0000      -0.756382       -20.5822
  50   1.0000      -0.694456       -18.8971
  51   1.0000      -0.688225       -18.7275
  52   1.0000      -0.669889       -18.2286
  53   1.0000      -0.635404       -17.2902
  54   1.0000      -0.629551       -17.1310
  55   1.0000      -0.618050       -16.8180
  56   1.0000      -0.599419       -16.3110
  57   1.0000      -0.593799       -16.1581
  58   1.0000      -0.588446       -16.0124
  59   1.0000      -0.583009       -15.8645
  60   1.0000      -0.569341       -15.4926
  61   1.0000      -0.559564       -15.2265
  62   1.0000      -0.543150       -14.7799
  63   1.0000      -0.535336       -14.5672
  64   1.0000      -0.529682       -14.4134
  65   1.0000      -0.519137       -14.1264
  66   1.0000      -0.505133       -13.7454
  67   1.0000      -0.480201       -13.0669
  68   1.0000      -0.469515       -12.7761
  69   1.0000      -0.457226       -12.4417
  70   1.0000      -0.447523       -12.1777
  71   1.0000      -0.430604       -11.7173
  72   1.0000      -0.426648       -11.6097
  73   1.0000      -0.422098       -11.4859
  74   1.0000      -0.418826       -11.3968
  75   1.0000      -0.416968       -11.3463
  76   1.0000      -0.416159       -11.3243
  77   0.0000       0.008819         0.2400
  78   0.0000       0.020886         0.5684
  79   0.0000       0.023067         0.6277
  80   0.0000       0.031002         0.8436
  81   0.0000       0.037920         1.0319

                 SPIN DOWN ORBITALS
  NO   OCC          E(Eh)            E(eV)
   0   1.0000    -261.550538     -7117.1520
   1   1.0000    -104.778764     -2851.1751
   2   1.0000    -104.776797     -2851.1216
   3   1.0000    -104.775497     -2851.0862
   4   1.0000     -32.060052      -872.3984
   5   1.0000     -27.538054      -749.3485
   6   1.0000     -27.537915      -749.3448
   7   1.0000     -27.537550      -749.3348
   8   1.0000     -20.570359      -559.7479
   9   1.0000     -11.395799      -310.0955
  10   1.0000     -11.335547      -308.4559
  11   1.0000     -11.290702      -307.2356
  12   1.0000     -11.273196      -306.7593
  13   1.0000     -11.272343      -306.7360
  14   1.0000     -11.261637      -306.4447
  15   1.0000     -11.237321      -305.7831
  16   1.0000     -11.236637      -305.7645
  17   1.0000     -10.505300      -285.8637
  18   1.0000     -10.503398      -285.8120
  19   1.0000     -10.502046      -285.7752
  20   1.0000      -7.971257      -216.9089
  21   1.0000      -7.970586      -216.8907
  22   1.0000      -7.970523      -216.8890
  23   1.0000      -7.969300      -216.8557
  24   1.0000      -7.968683      -216.8389
  25   1.0000      -7.968624      -216.8373
  26   1.0000      -7.968023      -216.8209
  27   1.0000      -7.967226      -216.7992
  28   1.0000      -7.967176      -216.7979
  29   1.0000      -4.135266      -112.5263
  30   1.0000      -2.657158       -72.3049
  31   1.0000      -2.657032       -72.3015
  32   1.0000      -2.656052       -72.2749
  33   1.0000      -1.352281       -36.7974
  34   1.0000      -1.157673       -31.5019
  35   1.0000      -1.090277       -29.6679
  36   1.0000      -1.037309       -28.2266
  37   1.0000      -1.033377       -28.1196
  38   1.0000      -1.026033       -27.9198
  39   1.0000      -1.023947       -27.8630
  40   1.0000      -1.006168       -27.3792
  41   1.0000      -0.964977       -26.2583
  42   1.0000      -0.924750       -25.1637
  43   1.0000      -0.802948       -21.8493
  44   1.0000      -0.759995       -20.6805
  45   1.0000      -0.694482       -18.8978
  46   1.0000      -0.687994       -18.7213
  47   1.0000      -0.670671       -18.2499
  48   1.0000      -0.635972       -17.3057
  49   1.0000      -0.629563       -17.1313
  50   1.0000      -0.616665       -16.7803
  51   1.0000      -0.599365       -16.3096
  52   1.0000      -0.592998       -16.1363
  53   1.0000      -0.588269       -16.0076
  54   1.0000      -0.581464       -15.8224
  55   1.0000      -0.569180       -15.4882
  56   1.0000      -0.559131       -15.2147
  57   1.0000      -0.538635       -14.6570
  58   1.0000      -0.534886       -14.5550
  59   1.0000      -0.527597       -14.3567
  60   1.0000      -0.513378       -13.9697
  61   1.0000      -0.505420       -13.7532
  62   1.0000      -0.476867       -12.9762
  63   1.0000      -0.471336       -12.8257
  64   1.0000      -0.466448       -12.6927
  65   1.0000      -0.450114       -12.2482
  66   1.0000      -0.441476       -12.0132
  67   1.0000      -0.438278       -11.9261
  68   1.0000      -0.435818       -11.8592
  69   1.0000      -0.417507       -11.3610
  70   1.0000      -0.412231       -11.2174
  71   1.0000      -0.403069       -10.9681
  72   0.0000       0.008804         0.2396
  73   0.0000       0.020812         0.5663
  74   0.0000       0.023046         0.6271
  75   0.0000       0.031046         0.8448
  76   0.0000       0.037925         1.0320

E(0)                                       ...  -3028.447629664
E(0)                                       ...  -3028.447629664
E(CORR)(strong-pairs)                      ...     -2.875880250
E(CORR)(weak-pairs)                        ...     -0.035094717
E(CORR)(corrected)                         ...     -2.910974968
E(TOT)                                     ...  -3031.358604631
E(CCSD(T))                                 ...  -3031.477561839
FINAL SINGLE POINT ENERGY     -3031.477561838966

DIPOLE MOMENT
-------------
                                X             Y             Z
Electronic contribution:     40.41224       2.96671       1.53785
Nuclear contribution   :    -44.82882      -2.48628      -1.88017
                        -----------------------------------------
Total Dipole Moment    :     -4.41657       0.48042      -0.34231
                        -----------------------------------------
Magnitude (a.u.)       :      4.45580
Magnitude (Debye)      :     11.32573

Rotational constants in cm-1:     0.018988     0.012117     0.010817
Rotational constants in MHz :   569.237050   363.267785   324.293615

                             ****ORCA TERMINATED NORMALLY****
TOTAL RUN TIME: 0 days 21 hours 32 minutes 57 seconds 414 msec
