                         Program Version 4.1.2  - RELEASE  -
|  1> ! aug-cc-pVTZ aug-cc-pVTZ/C DLPNO-CCSD(T1) TightSCF NormalPNO UNO MiniPrint AutoAux
|  2> %pal nproc 10 end
|  3> %maxcore 20000
|  4> %mdci
|  5>      density none
|  6> end
|  7>
|  8> * xyz 0 6
|  9>  O      0.17315700      0.38681500     -0.88284900
| 10>  C      0.98298000      1.32582000     -0.68274700
| 11>  C      3.01705600      0.18335400      0.57416000
| 12>  C      2.71109500     -0.92090300     -0.14038700
| 13>  C      3.26632800     -1.14504100     -1.51998100
| 14> Fe     -1.49347200     -0.17025500      0.00200400
| 15> Cl     -2.04276100     -2.01693100     -1.00742800
| 16>  C      1.80016500     -2.00880200      0.34681200
| 17> Cl     -2.76686600      1.56396400     -0.39334100
| 18> Cl     -1.07648200     -0.42082000      2.14301400
| 19>  H      3.72681300      0.88124900      0.12947600
| 20>  H      2.33296200     -2.96868300      0.36183500
| 21>  H      1.39277900     -1.82721700      1.34100400
| 22>  H      0.95956000     -2.13636400     -0.34872900
| 23>  H      3.84068600     -2.08029900     -1.54442000
| 24>  H      2.45725600     -1.26302200     -2.25360500
| 25>  H      3.92762900     -0.33631200     -1.84323900
| 26>  C      2.72942400      0.40176000      2.03759800
| 27>  H      3.50964000     -0.07541600      2.64597500
| 28>  H      2.74010400      1.46487700      2.29456900
| 29>  H      1.76890900     -0.01187600      2.35354300
| 30>  C      0.79374500      2.26201800      0.47028500
| 31>  H      1.68096300      2.86564000      0.66345900
| 32>  H     -0.02892100      2.93177400      0.17767700
| 33>  H      0.47770000      1.73822300      1.37252500
| 34>  C      1.82155400      1.77784500     -1.84118500
| 35>  H      1.22901400      2.54647400     -2.35914400
| 36>  H      2.75847500      2.23693000     -1.52390900
| 37>  H      2.00120300      0.96420400     -2.54183200
| 38> *
| 39>
| 40>
| 41>                          ****END OF INPUT****

CARTESIAN COORDINATES (ANGSTROEM)
---------------------------------
  O      0.173157    0.386815   -0.882849
  C      0.982980    1.325820   -0.682747
  C      3.017056    0.183354    0.574160
  C      2.711095   -0.920903   -0.140387
  C      3.266328   -1.145041   -1.519981
  Fe    -1.493472   -0.170255    0.002004
  Cl    -2.042761   -2.016931   -1.007428
  C      1.800165   -2.008802    0.346812
  Cl    -2.766866    1.563964   -0.393341
  Cl    -1.076482   -0.420820    2.143014
  H      3.726813    0.881249    0.129476
  H      2.332962   -2.968683    0.361835
  H      1.392779   -1.827217    1.341004
  H      0.959560   -2.136364   -0.348729
  H      3.840686   -2.080299   -1.544420
  H      2.457256   -1.263022   -2.253605
  H      3.927629   -0.336312   -1.843239
  C      2.729424    0.401760    2.037598
  H      3.509640   -0.075416    2.645975
  H      2.740104    1.464877    2.294569
  H      1.768909   -0.011876    2.353543
  C      0.793745    2.262018    0.470285
  H      1.680963    2.865640    0.663459
  H     -0.028921    2.931774    0.177677
  H      0.477700    1.738223    1.372525
  C      1.821554    1.777845   -1.841185
  H      1.229014    2.546474   -2.359144
  H      2.758475    2.236930   -1.523909
  H      2.001203    0.964204   -2.541832

ORBITAL ENERGIES
----------------
                 SPIN UP ORBITALS
  NO   OCC          E(Eh)            E(eV)
   0   1.0000    -261.575351     -7117.8272
   1   1.0000    -104.793942     -2851.5881
   2   1.0000    -104.790502     -2851.4945
   3   1.0000    -104.788274     -2851.4339
   4   1.0000     -32.243070      -877.3785
   5   1.0000     -27.719550      -754.2873
   6   1.0000     -27.718415      -754.2564
   7   1.0000     -27.718206      -754.2507
   8   1.0000     -20.620861      -561.1222
   9   1.0000     -11.421617      -310.7980
  10   1.0000     -11.277681      -306.8813
  11   1.0000     -11.272587      -306.7427
  12   1.0000     -11.268144      -306.6218
  13   1.0000     -11.244533      -305.9793
  14   1.0000     -11.244157      -305.9691
  15   1.0000     -11.235756      -305.7405
  16   1.0000     -11.230011      -305.5841
  17   1.0000     -10.520667      -286.2819
  18   1.0000     -10.517190      -286.1873
  19   1.0000     -10.514914      -286.1254
  20   1.0000      -7.987498      -217.3509
  21   1.0000      -7.986745      -217.3304
  22   1.0000      -7.986696      -217.3290
  23   1.0000      -7.984061      -217.2573
  24   1.0000      -7.983290      -217.2364
  25   1.0000      -7.983238      -217.2350
  26   1.0000      -7.981705      -217.1932
  27   1.0000      -7.981047      -217.1753
  28   1.0000      -7.980994      -217.1739
  29   1.0000      -4.597950      -125.1166
  30   1.0000      -3.211109       -87.3787
  31   1.0000      -3.209360       -87.3311
  32   1.0000      -3.209182       -87.3263
  33   1.0000      -1.463910       -39.8350
  34   1.0000      -1.126647       -30.6576
  35   1.0000      -1.100442       -29.9446
  36   1.0000      -1.066951       -29.0332
  37   1.0000      -1.061054       -28.8727
  38   1.0000      -1.057881       -28.7864
  39   1.0000      -1.021981       -27.8095
  40   1.0000      -1.009147       -27.4603
  41   1.0000      -0.958918       -26.0935
  42   1.0000      -0.942629       -25.6502
  43   1.0000      -0.926883       -25.2218
  44   1.0000      -0.926730       -25.2176
  45   1.0000      -0.916099       -24.9283
  46   1.0000      -0.915419       -24.9098
  47   1.0000      -0.896085       -24.3837
  48   1.0000      -0.814124       -22.1534
  49   1.0000      -0.730015       -19.8647
  50   1.0000      -0.712180       -19.3794
  51   1.0000      -0.702086       -19.1047
  52   1.0000      -0.683637       -18.6027
  53   1.0000      -0.655144       -17.8274
  54   1.0000      -0.621496       -16.9118
  55   1.0000      -0.620798       -16.8928
  56   1.0000      -0.605193       -16.4681
  57   1.0000      -0.599647       -16.3172
  58   1.0000      -0.585857       -15.9420
  59   1.0000      -0.578527       -15.7425
  60   1.0000      -0.560950       -15.2642
  61   1.0000      -0.552118       -15.0239
  62   1.0000      -0.546015       -14.8578
  63   1.0000      -0.540787       -14.7156
  64   1.0000      -0.537139       -14.6163
  65   1.0000      -0.525722       -14.3056
  66   1.0000      -0.503631       -13.7045
  67   1.0000      -0.493130       -13.4188
  68   1.0000      -0.476974       -12.9791
  69   1.0000      -0.476176       -12.9574
  70   1.0000      -0.446739       -12.1564
  71   1.0000      -0.440514       -11.9870
  72   1.0000      -0.438566       -11.9340
  73   1.0000      -0.430082       -11.7031
  74   1.0000      -0.429044       -11.6749
  75   1.0000      -0.427651       -11.6370
  76   1.0000      -0.359844        -9.7918
  77   0.0000       0.012547         0.3414
  78   0.0000       0.023529         0.6403
  79   0.0000       0.024213         0.6589
  80   0.0000       0.030598         0.8326
  81   0.0000       0.039235         1.0677

                 SPIN DOWN ORBITALS
  NO   OCC          E(Eh)            E(eV)
   0   1.0000    -261.571767     -7117.7296
   1   1.0000    -104.792455     -2851.5477
   2   1.0000    -104.788944     -2851.4521
   3   1.0000    -104.786708     -2851.3913
   4   1.0000     -32.081075      -872.9704
   5   1.0000     -27.559000      -749.9185
   6   1.0000     -27.558914      -749.9162
   7   1.0000     -27.558812      -749.9134
   8   1.0000     -20.617338      -561.0263
   9   1.0000     -11.421542      -310.7960
  10   1.0000     -11.277573      -306.8784
  11   1.0000     -11.272576      -306.7424
  12   1.0000     -11.268157      -306.6221
  13   1.0000     -11.244497      -305.9783
  14   1.0000     -11.244155      -305.9690
  15   1.0000     -11.235757      -305.7405
  16   1.0000     -11.230022      -305.5844
  17   1.0000     -10.519078      -286.2387
  18   1.0000     -10.515528      -286.1421
  19   1.0000     -10.513251      -286.0801
  20   1.0000      -7.984998      -217.2828
  21   1.0000      -7.984260      -217.2628
  22   1.0000      -7.984222      -217.2617
  23   1.0000      -7.981418      -217.1854
  24   1.0000      -7.980714      -217.1663
  25   1.0000      -7.980625      -217.1639
  26   1.0000      -7.979241      -217.1262
  27   1.0000      -7.978349      -217.1019
  28   1.0000      -7.978264      -217.0996
  29   1.0000      -4.155867      -113.0869
  30   1.0000      -2.677424       -72.8564
  31   1.0000      -2.677389       -72.8555
  32   1.0000      -2.676941       -72.8433
  33   1.0000      -1.455291       -39.6005
  34   1.0000      -1.126342       -30.6493
  35   1.0000      -1.098068       -29.8799
  36   1.0000      -1.051248       -28.6059
  37   1.0000      -1.038686       -28.2641
  38   1.0000      -1.035160       -28.1681
  39   1.0000      -1.021206       -27.7884
  40   1.0000      -1.008724       -27.4488
  41   1.0000      -0.958835       -26.0912
  42   1.0000      -0.896198       -24.3868
  43   1.0000      -0.827366       -22.5138
  44   1.0000      -0.730088       -19.8667
  45   1.0000      -0.714117       -19.4321
  46   1.0000      -0.701241       -19.0817
  47   1.0000      -0.683029       -18.5862
  48   1.0000      -0.655085       -17.8258
  49   1.0000      -0.621416       -16.9096
  50   1.0000      -0.620296       -16.8791
  51   1.0000      -0.604963       -16.4619
  52   1.0000      -0.599529       -16.3140
  53   1.0000      -0.585533       -15.9332
  54   1.0000      -0.576972       -15.7002
  55   1.0000      -0.560271       -15.2458
  56   1.0000      -0.551820       -15.0158
  57   1.0000      -0.544757       -14.8236
  58   1.0000      -0.540554       -14.7092
  59   1.0000      -0.527258       -14.3474
  60   1.0000      -0.523667       -14.2497
  61   1.0000      -0.505560       -13.7570
  62   1.0000      -0.493067       -13.4170
  63   1.0000      -0.485214       -13.2033
  64   1.0000      -0.482399       -13.1268
  65   1.0000      -0.454179       -12.3588
  66   1.0000      -0.450661       -12.2631
  67   1.0000      -0.447755       -12.1840
  68   1.0000      -0.431532       -11.7426
  69   1.0000      -0.428856       -11.6698
  70   1.0000      -0.413231       -11.2446
  71   1.0000      -0.359309        -9.7773
  72   0.0000       0.012530         0.3410
  73   0.0000       0.023505         0.6396
  74   0.0000       0.024174         0.6578
  75   0.0000       0.030521         0.8305
  76   0.0000       0.039128         1.0647

E(0)                                       ...  -3028.466093101
E(0)                                       ...  -3028.466093101
E(CORR)(strong-pairs)                      ...     -2.867019162
E(CORR)(weak-pairs)                        ...     -0.035339179
E(CORR)(corrected)                         ...     -2.902358341
E(TOT)                                     ...  -3031.368451442
E(CCSD(T))                                 ...  -3031.486404656
FINAL SINGLE POINT ENERGY     -3031.486404656046

DIPOLE MOMENT
-------------
                                X             Y             Z
Electronic contribution:    -43.79574      -5.12682       1.44871
Nuclear contribution   :     47.12868       6.58839      -2.07959
                        -----------------------------------------
Total Dipole Moment    :      3.33294       1.46157      -0.63088
                        -----------------------------------------
Magnitude (a.u.)       :      3.69360
Magnitude (Debye)      :      9.38838

Rotational constants in cm-1:     0.018868     0.010631     0.010000
Rotational constants in MHz :   565.650491   318.722538   299.806955

                             ****ORCA TERMINATED NORMALLY****
TOTAL RUN TIME: 0 days 17 hours 2 minutes 43 seconds 12 msec
