                         Program Version 4.1.2  - RELEASE  -
|  1> ! aug-cc-pVTZ aug-cc-pVTZ/C DLPNO-CCSD(T1) TightSCF NormalPNO UNO MiniPrint AutoAux
|  2> %pal nproc 10 end
|  3> %maxcore 20000
|  4> %mdci
|  5>      density none
|  6> end
|  7>
|  8> * xyz 0 6
|  9>  O     -0.42356700     -0.16988600     -0.52275300
| 10>  C     -1.46727300     -1.17669600     -0.33127300
| 11>  C     -2.74155000     -0.13145100     -0.25263700
| 12>  C     -1.90674600      1.14610800     -0.26134900
| 13>  C     -1.82427200      1.94300300     -1.51242900
| 14> Fe      1.37599200      0.03136000      0.02889800
| 15> Cl      1.86787000      1.99337400     -0.85755900
| 16>  C     -1.56129300      1.83178600      1.01095600
| 17> Cl      2.42481000     -1.72845200     -0.74620900
| 18> Cl      1.39025900      0.14561300      2.23540200
| 19>  H     -3.28767300     -0.19832100     -1.19843300
| 20>  H     -2.43267100      2.44303300      1.29414100
| 21>  H     -1.35571700      1.13770100      1.82574000
| 22>  H     -0.70718300      2.49996100      0.87915900
| 23>  H     -2.64742100      2.67528900     -1.48959500
| 24>  H     -0.88039600      2.49226000     -1.56380100
| 25>  H     -1.94346000      1.32021900     -2.40039000
| 26>  C     -3.71498800     -0.30125000      0.90777200
| 27>  H     -4.48901600      0.47444000      0.88790300
| 28>  H     -4.21891100     -1.26927000      0.82676400
| 29>  H     -3.22031000     -0.26310600      1.88106500
| 30>  C     -1.22881500     -1.97386000      0.93827500
| 31>  H     -2.04679200     -2.68115700      1.10963800
| 32>  H     -0.30153800     -2.54742000      0.83279100
| 33>  H     -1.12184200     -1.33213800      1.81491000
| 34>  C     -1.51780600     -2.06036100     -1.56423100
| 35>  H     -0.57099600     -2.60131900     -1.66406400
| 36>  H     -2.33247900     -2.78938900     -1.48654900
| 37>  H     -1.66435900     -1.45981900     -2.46689500
| 38> *
| 39>
| 40>
| 41>                          ****END OF INPUT****

CARTESIAN COORDINATES (ANGSTROEM)
---------------------------------
  O     -0.423567   -0.169886   -0.522753
  C     -1.467273   -1.176696   -0.331273
  C     -2.741550   -0.131451   -0.252637
  C     -1.906746    1.146108   -0.261349
  C     -1.824272    1.943003   -1.512429
  Fe     1.375992    0.031360    0.028898
  Cl     1.867870    1.993374   -0.857559
  C     -1.561293    1.831786    1.010956
  Cl     2.424810   -1.728452   -0.746209
  Cl     1.390259    0.145613    2.235402
  H     -3.287673   -0.198321   -1.198433
  H     -2.432671    2.443033    1.294141
  H     -1.355717    1.137701    1.825740
  H     -0.707183    2.499961    0.879159
  H     -2.647421    2.675289   -1.489595
  H     -0.880396    2.492260   -1.563801
  H     -1.943460    1.320219   -2.400390
  C     -3.714988   -0.301250    0.907772
  H     -4.489016    0.474440    0.887903
  H     -4.218911   -1.269270    0.826764
  H     -3.220310   -0.263106    1.881065
  C     -1.228815   -1.973860    0.938275
  H     -2.046792   -2.681157    1.109638
  H     -0.301538   -2.547420    0.832791
  H     -1.121842   -1.332138    1.814910
  C     -1.517806   -2.060361   -1.564231
  H     -0.570996   -2.601319   -1.664064
  H     -2.332479   -2.789389   -1.486549
  H     -1.664359   -1.459819   -2.466895

ORBITAL ENERGIES
----------------
                 SPIN UP ORBITALS
  NO   OCC          E(Eh)            E(eV)
   0   1.0000    -261.551656     -7117.1824
   1   1.0000    -104.778667     -2851.1725
   2   1.0000    -104.776859     -2851.1233
   3   1.0000    -104.775093     -2851.0752
   4   1.0000     -32.219584      -876.7394
   5   1.0000     -27.695566      -753.6347
   6   1.0000     -27.695252      -753.6261
   7   1.0000     -27.694956      -753.6181
   8   1.0000     -20.568569      -559.6992
   9   1.0000     -11.400606      -310.2263
  10   1.0000     -11.335164      -308.4455
  11   1.0000     -11.291969      -307.2701
  12   1.0000     -11.276070      -306.8375
  13   1.0000     -11.275146      -306.8123
  14   1.0000     -11.263030      -306.4826
  15   1.0000     -11.236671      -305.7654
  16   1.0000     -11.235801      -305.7417
  17   1.0000     -10.505291      -285.8635
  18   1.0000     -10.503565      -285.8165
  19   1.0000     -10.501735      -285.7668
  20   1.0000      -7.972118      -216.9324
  21   1.0000      -7.971381      -216.9123
  22   1.0000      -7.971304      -216.9102
  23   1.0000      -7.970443      -216.8868
  24   1.0000      -7.969611      -216.8641
  25   1.0000      -7.969586      -216.8635
  26   1.0000      -7.968536      -216.8349
  27   1.0000      -7.967855      -216.8164
  28   1.0000      -7.967783      -216.8144
  29   1.0000      -4.574928      -124.4901
  30   1.0000      -3.187359       -86.7324
  31   1.0000      -3.187047       -86.7240
  32   1.0000      -3.186487       -86.7087
  33   1.0000      -1.360101       -37.0102
  34   1.0000      -1.164471       -31.6869
  35   1.0000      -1.092619       -29.7317
  36   1.0000      -1.050419       -28.5833
  37   1.0000      -1.044879       -28.4326
  38   1.0000      -1.042898       -28.3787
  39   1.0000      -1.035023       -28.1644
  40   1.0000      -1.009842       -27.4792
  41   1.0000      -0.964967       -26.2581
  42   1.0000      -0.932982       -25.3877
  43   1.0000      -0.904707       -24.6183
  44   1.0000      -0.904222       -24.6051
  45   1.0000      -0.902407       -24.5558
  46   1.0000      -0.895712       -24.3736
  47   1.0000      -0.895079       -24.3563
  48   1.0000      -0.801132       -21.7999
  49   1.0000      -0.757027       -20.5997
  50   1.0000      -0.696408       -18.9502
  51   1.0000      -0.688336       -18.7306
  52   1.0000      -0.669939       -18.2300
  53   1.0000      -0.635396       -17.2900
  54   1.0000      -0.630963       -17.1694
  55   1.0000      -0.619103       -16.8466
  56   1.0000      -0.600835       -16.3495
  57   1.0000      -0.594342       -16.1729
  58   1.0000      -0.590494       -16.0682
  59   1.0000      -0.582614       -15.8537
  60   1.0000      -0.571537       -15.5523
  61   1.0000      -0.559270       -15.2185
  62   1.0000      -0.543498       -14.7893
  63   1.0000      -0.535953       -14.5840
  64   1.0000      -0.528948       -14.3934
  65   1.0000      -0.518362       -14.1053
  66   1.0000      -0.505109       -13.7447
  67   1.0000      -0.477979       -13.0065
  68   1.0000      -0.468420       -12.7463
  69   1.0000      -0.455144       -12.3851
  70   1.0000      -0.445104       -12.1119
  71   1.0000      -0.429283       -11.6814
  72   1.0000      -0.425175       -11.5696
  73   1.0000      -0.420441       -11.4408
  74   1.0000      -0.417274       -11.3546
  75   1.0000      -0.415535       -11.3073
  76   1.0000      -0.414538       -11.2801
  77   0.0000       0.008042         0.2188
  78   0.0000       0.020413         0.5555
  79   0.0000       0.022588         0.6146
  80   0.0000       0.030832         0.8390
  81   0.0000       0.037622         1.0237

                 SPIN DOWN ORBITALS
  NO   OCC          E(Eh)            E(eV)
   0   1.0000    -261.548104     -7117.0857
   1   1.0000    -104.777308     -2851.1355
   2   1.0000    -104.775451     -2851.0850
   3   1.0000    -104.773623     -2851.0352
   4   1.0000     -32.057609      -872.3319
   5   1.0000     -27.535636      -749.2828
   6   1.0000     -27.535475      -749.2784
   7   1.0000     -27.535083      -749.2677
   8   1.0000     -20.563323      -559.5565
   9   1.0000     -11.400652      -310.2275
  10   1.0000     -11.334984      -308.4406
  11   1.0000     -11.291873      -307.2675
  12   1.0000     -11.276052      -306.8370
  13   1.0000     -11.275153      -306.8125
  14   1.0000     -11.263015      -306.4822
  15   1.0000     -11.236639      -305.7645
  16   1.0000     -11.235791      -305.7414
  17   1.0000     -10.503832      -285.8238
  18   1.0000     -10.502053      -285.7754
  19   1.0000     -10.500163      -285.7240
  20   1.0000      -7.969788      -216.8690
  21   1.0000      -7.969140      -216.8513
  22   1.0000      -7.969074      -216.8495
  23   1.0000      -7.967952      -216.8190
  24   1.0000      -7.967352      -216.8027
  25   1.0000      -7.967296      -216.8011
  26   1.0000      -7.966142      -216.7698
  27   1.0000      -7.965352      -216.7483
  28   1.0000      -7.965300      -216.7468
  29   1.0000      -4.132858      -112.4608
  30   1.0000      -2.654756       -72.2396
  31   1.0000      -2.654670       -72.2372
  32   1.0000      -2.653638       -72.2092
  33   1.0000      -1.346573       -36.6421
  34   1.0000      -1.162571       -31.6352
  35   1.0000      -1.090232       -29.6667
  36   1.0000      -1.035714       -28.1832
  37   1.0000      -1.033797       -28.1310
  38   1.0000      -1.024688       -27.8832
  39   1.0000      -1.022189       -27.8152
  40   1.0000      -1.009473       -27.4692
  41   1.0000      -0.964275       -26.2392
  42   1.0000      -0.926156       -25.2020
  43   1.0000      -0.803125       -21.8541
  44   1.0000      -0.760819       -20.7029
  45   1.0000      -0.696464       -18.9517
  46   1.0000      -0.688029       -18.7222
  47   1.0000      -0.670865       -18.2552
  48   1.0000      -0.636133       -17.3101
  49   1.0000      -0.631010       -17.1707
  50   1.0000      -0.617623       -16.8064
  51   1.0000      -0.600846       -16.3499
  52   1.0000      -0.593405       -16.1474
  53   1.0000      -0.590386       -16.0652
  54   1.0000      -0.581064       -15.8116
  55   1.0000      -0.571270       -15.5450
  56   1.0000      -0.558817       -15.2062
  57   1.0000      -0.539240       -14.6735
  58   1.0000      -0.535366       -14.5680
  59   1.0000      -0.526787       -14.3346
  60   1.0000      -0.513108       -13.9624
  61   1.0000      -0.504374       -13.7247
  62   1.0000      -0.474700       -12.9172
  63   1.0000      -0.469707       -12.7814
  64   1.0000      -0.464108       -12.6290
  65   1.0000      -0.448560       -12.2059
  66   1.0000      -0.440082       -11.9752
  67   1.0000      -0.436494       -11.8776
  68   1.0000      -0.434580       -11.8255
  69   1.0000      -0.415775       -11.3138
  70   1.0000      -0.410045       -11.1579
  71   1.0000      -0.401728       -10.9316
  72   0.0000       0.008023         0.2183
  73   0.0000       0.020325         0.5531
  74   0.0000       0.022567         0.6141
  75   0.0000       0.030872         0.8401
  76   0.0000       0.037628         1.0239

E(0)                                       ...  -3028.444981524
E(0)                                       ...  -3028.444981524
E(CORR)(strong-pairs)                      ...     -2.874456251
E(CORR)(weak-pairs)                        ...     -0.035296188
E(CORR)(corrected)                         ...     -2.909752438
E(TOT)                                     ...  -3031.354733963
E(CCSD(T))                                 ...  -3031.473518641
FINAL SINGLE POINT ENERGY     -3031.473518641199

DIPOLE MOMENT
-------------
                                X             Y             Z
Electronic contribution:     40.38589       3.24049       1.53068
Nuclear contribution   :    -44.92200      -2.70659      -1.86932
                        -----------------------------------------
Total Dipole Moment    :     -4.53611       0.53390      -0.33864
                        -----------------------------------------
Magnitude (a.u.)       :      4.57996
Magnitude (Debye)      :     11.64134

Rotational constants in cm-1:     0.018995     0.012081     0.010774
Rotational constants in MHz :   569.441877   362.165347   322.996909

                             ****ORCA TERMINATED NORMALLY****
TOTAL RUN TIME: 0 days 23 hours 21 minutes 31 seconds 104 msec
