                         Program Version 4.1.2  - RELEASE  -
|  1> ! aug-cc-pVTZ aug-cc-pVTZ/C DLPNO-CCSD(T1) TightSCF NormalPNO UNO MiniPrint AutoAux
|  2> %pal nproc 10 end
|  3> %maxcore 20000
|  4> %mdci
|  5>      density none
|  6> end
|  7>
|  8> * xyz 0 6
|  9>  O      0.27666700      0.27414700     -0.63918600
| 10>  C      1.37014300      1.09453200     -0.33371200
| 11>  C      2.68420100      0.11805300     -0.53923800
| 12>  C      2.16589200     -1.21370900     -0.17052500
| 13>  C      1.65524100     -2.10294800     -1.23091500
| 14> Fe     -1.42452400     -0.00050700     -0.01834900
| 15> Cl     -2.30282100     -1.45453100     -1.42419600
| 16>  C      2.10019500     -1.68264800      1.20055900
| 17> Cl     -2.45313400      1.93154000      0.20379600
| 18> Cl     -1.10193200     -1.00711000      1.99492700
| 19>  H      2.85643600      0.12142400     -1.61999000
| 20>  H      2.76895100     -1.18417500      1.90041300
| 21>  H      1.04109900     -1.44612000      1.51027900
| 22>  H      2.15593800     -2.77282000      1.27613000
| 23>  H      2.51419500     -2.72149800     -1.54928700
| 24>  H      0.87745000     -2.77880500     -0.86448000
| 25>  H      1.29713800     -1.54075500     -2.09358700
| 26>  C      3.94257800      0.59268300      0.19084600
| 27>  H      4.79490700     -0.05775800     -0.03252600
| 28>  H      4.19765800      1.60052900     -0.14874900
| 29>  H      3.81324900      0.62959600      1.27429600
| 30>  C      1.29599500      1.63542200      1.09546400
| 31>  H      2.13783100      2.29411100      1.32553700
| 32>  H      0.37448300      2.22015400      1.18053600
| 33>  H      1.24460000      0.84133800      1.84310100
| 34>  C      1.44996700      2.23596200     -1.34495200
| 35>  H      0.56108400      2.86341400     -1.22106200
| 36>  H      2.33969300      2.85803800     -1.19738200
| 37>  H      1.44836800      1.84097200     -2.36479400
| 38> *
| 39>
| 40>
| 41>                          ****END OF INPUT****

CARTESIAN COORDINATES (ANGSTROEM)
---------------------------------
  O      0.276667    0.274147   -0.639186
  C      1.370143    1.094532   -0.333712
  C      2.684201    0.118053   -0.539238
  C      2.165892   -1.213709   -0.170525
  C      1.655241   -2.102948   -1.230915
  Fe    -1.424524   -0.000507   -0.018349
  Cl    -2.302821   -1.454531   -1.424196
  C      2.100195   -1.682648    1.200559
  Cl    -2.453134    1.931540    0.203796
  Cl    -1.101932   -1.007110    1.994927
  H      2.856436    0.121424   -1.619990
  H      2.768951   -1.184175    1.900413
  H      1.041099   -1.446120    1.510279
  H      2.155938   -2.772820    1.276130
  H      2.514195   -2.721498   -1.549287
  H      0.877450   -2.778805   -0.864480
  H      1.297138   -1.540755   -2.093587
  C      3.942578    0.592683    0.190846
  H      4.794907   -0.057758   -0.032526
  H      4.197658    1.600529   -0.148749
  H      3.813249    0.629596    1.274296
  C      1.295995    1.635422    1.095464
  H      2.137831    2.294111    1.325537
  H      0.374483    2.220154    1.180536
  H      1.244600    0.841338    1.843101
  C      1.449967    2.235962   -1.344952
  H      0.561084    2.863414   -1.221062
  H      2.339693    2.858038   -1.197382
  H      1.448368    1.840972   -2.364794

ORBITAL ENERGIES
----------------
                 SPIN UP ORBITALS
  NO   OCC          E(Eh)            E(eV)
   0   1.0000    -261.540331     -7116.8742
   1   1.0000    -104.775714     -2851.0921
   2   1.0000    -104.768284     -2850.8899
   3   1.0000    -104.767355     -2850.8647
   4   1.0000     -32.208200      -876.4297
   5   1.0000     -27.684278      -753.3275
   6   1.0000     -27.683746      -753.3130
   7   1.0000     -27.683674      -753.3111
   8   1.0000     -20.533073      -558.7333
   9   1.0000     -11.411462      -310.5217
  10   1.0000     -11.335984      -308.4678
  11   1.0000     -11.293687      -307.3169
  12   1.0000     -11.288438      -307.1740
  13   1.0000     -11.285499      -307.0940
  14   1.0000     -11.271001      -306.6995
  15   1.0000     -11.233433      -305.6773
  16   1.0000     -11.233123      -305.6688
  17   1.0000     -10.502281      -285.7816
  18   1.0000     -10.494855      -285.5795
  19   1.0000     -10.493896      -285.5534
  20   1.0000      -7.969165      -216.8520
  21   1.0000      -7.968237      -216.8268
  22   1.0000      -7.968199      -216.8257
  23   1.0000      -7.961647      -216.6474
  24   1.0000      -7.960953      -216.6285
  25   1.0000      -7.960903      -216.6272
  26   1.0000      -7.960702      -216.6217
  27   1.0000      -7.960011      -216.6029
  28   1.0000      -7.959901      -216.5999
  29   1.0000      -4.563770      -124.1865
  30   1.0000      -3.176346       -86.4328
  31   1.0000      -3.175802       -86.4180
  32   1.0000      -3.175571       -86.4117
  33   1.0000      -1.351957       -36.7886
  34   1.0000      -1.196504       -32.5585
  35   1.0000      -1.096208       -29.8293
  36   1.0000      -1.044769       -28.4296
  37   1.0000      -1.037322       -28.2270
  38   1.0000      -1.033942       -28.1350
  39   1.0000      -1.033037       -28.1104
  40   1.0000      -1.025616       -27.9084
  41   1.0000      -0.961877       -26.1740
  42   1.0000      -0.941147       -25.6099
  43   1.0000      -0.900840       -24.5131
  44   1.0000      -0.893845       -24.3228
  45   1.0000      -0.893314       -24.3083
  46   1.0000      -0.886601       -24.1256
  47   1.0000      -0.885152       -24.0862
  48   1.0000      -0.804603       -21.8944
  49   1.0000      -0.761602       -20.7242
  50   1.0000      -0.710803       -19.3419
  51   1.0000      -0.690120       -18.7791
  52   1.0000      -0.676135       -18.3986
  53   1.0000      -0.646106       -17.5815
  54   1.0000      -0.637662       -17.3517
  55   1.0000      -0.625591       -17.0232
  56   1.0000      -0.614839       -16.7306
  57   1.0000      -0.596186       -16.2231
  58   1.0000      -0.588794       -16.0219
  59   1.0000      -0.588007       -16.0005
  60   1.0000      -0.575789       -15.6680
  61   1.0000      -0.557271       -15.1641
  62   1.0000      -0.549152       -14.9432
  63   1.0000      -0.538960       -14.6658
  64   1.0000      -0.529798       -14.4165
  65   1.0000      -0.526168       -14.3178
  66   1.0000      -0.500729       -13.6255
  67   1.0000      -0.467804       -12.7296
  68   1.0000      -0.461686       -12.5631
  69   1.0000      -0.440674       -11.9914
  70   1.0000      -0.433520       -11.7967
  71   1.0000      -0.421600       -11.4723
  72   1.0000      -0.418372       -11.3845
  73   1.0000      -0.412844       -11.2341
  74   1.0000      -0.409688       -11.1482
  75   1.0000      -0.408629       -11.1194
  76   1.0000      -0.407625       -11.0920
  77   0.0000       0.003075         0.0837
  78   0.0000       0.005270         0.1434
  79   0.0000       0.019669         0.5352
  80   0.0000       0.020094         0.5468
  81   0.0000       0.029554         0.8042

                 SPIN DOWN ORBITALS
  NO   OCC          E(Eh)            E(eV)
   0   1.0000    -261.536785     -7116.7777
   1   1.0000    -104.774522     -2851.0597
   2   1.0000    -104.766881     -2850.8518
   3   1.0000    -104.766015     -2850.8282
   4   1.0000     -32.046209      -872.0217
   5   1.0000     -27.524371      -748.9762
   6   1.0000     -27.524179      -748.9710
   7   1.0000     -27.523487      -748.9522
   8   1.0000     -20.526335      -558.5500
   9   1.0000     -11.411464      -310.5217
  10   1.0000     -11.335787      -308.4624
  11   1.0000     -11.293541      -307.3129
  12   1.0000     -11.288435      -307.1739
  13   1.0000     -11.285496      -307.0940
  14   1.0000     -11.271003      -306.6996
  15   1.0000     -11.233363      -305.6753
  16   1.0000     -11.233083      -305.6677
  17   1.0000     -10.500984      -285.7463
  18   1.0000     -10.493353      -285.5387
  19   1.0000     -10.492460      -285.5144
  20   1.0000      -7.966702      -216.7850
  21   1.0000      -7.966579      -216.7816
  22   1.0000      -7.966409      -216.7770
  23   1.0000      -7.959351      -216.5849
  24   1.0000      -7.958580      -216.5640
  25   1.0000      -7.958542      -216.5629
  26   1.0000      -7.958455      -216.5606
  27   1.0000      -7.957763      -216.5417
  28   1.0000      -7.957686      -216.5396
  29   1.0000      -4.121761      -112.1588
  30   1.0000      -2.643786       -71.9411
  31   1.0000      -2.643655       -71.9375
  32   1.0000      -2.642849       -71.9156
  33   1.0000      -1.334366       -36.3100
  34   1.0000      -1.195026       -32.5183
  35   1.0000      -1.093698       -29.7610
  36   1.0000      -1.034615       -28.1533
  37   1.0000      -1.030890       -28.0519
  38   1.0000      -1.024524       -27.8787
  39   1.0000      -1.017078       -27.6761
  40   1.0000      -1.013520       -27.5793
  41   1.0000      -0.961066       -26.1519
  42   1.0000      -0.938896       -25.5487
  43   1.0000      -0.808776       -22.0079
  44   1.0000      -0.766837       -20.8667
  45   1.0000      -0.710847       -19.3431
  46   1.0000      -0.690873       -18.7996
  47   1.0000      -0.677473       -18.4350
  48   1.0000      -0.647899       -17.6302
  49   1.0000      -0.637619       -17.3505
  50   1.0000      -0.624111       -16.9829
  51   1.0000      -0.614869       -16.7314
  52   1.0000      -0.594617       -16.1804
  53   1.0000      -0.588962       -16.0265
  54   1.0000      -0.587352       -15.9827
  55   1.0000      -0.574953       -15.6453
  56   1.0000      -0.556056       -15.1311
  57   1.0000      -0.547426       -14.8962
  58   1.0000      -0.538534       -14.6543
  59   1.0000      -0.527154       -14.3446
  60   1.0000      -0.520841       -14.1728
  61   1.0000      -0.496901       -13.5214
  62   1.0000      -0.466035       -12.6814
  63   1.0000      -0.461686       -12.5631
  64   1.0000      -0.446325       -12.1451
  65   1.0000      -0.441212       -12.0060
  66   1.0000      -0.434373       -11.8199
  67   1.0000      -0.428078       -11.6486
  68   1.0000      -0.426459       -11.6045
  69   1.0000      -0.404889       -11.0176
  70   1.0000      -0.400405       -10.8956
  71   1.0000      -0.396005       -10.7758
  72   0.0000       0.002895         0.0788
  73   0.0000       0.005221         0.1421
  74   0.0000       0.019656         0.5349
  75   0.0000       0.020059         0.5458
  76   0.0000       0.029572         0.8047

E(0)                                       ...  -3028.431705279
E(0)                                       ...  -3028.431705279
E(CORR)(strong-pairs)                      ...     -2.869858577
E(CORR)(weak-pairs)                        ...     -0.035214499
E(CORR)(corrected)                         ...     -2.905073075
E(TOT)                                     ...  -3031.336778354
E(CCSD(T))                                 ...  -3031.454251790
FINAL SINGLE POINT ENERGY     -3031.454251789842

DIPOLE MOMENT
-------------
                                X             Y             Z
Electronic contribution:    -41.31432      -4.18752       1.45599
Nuclear contribution   :     46.49831       3.40348      -1.76280
                        -----------------------------------------
Total Dipole Moment    :      5.18399      -0.78404      -0.30681
                        -----------------------------------------
Magnitude (a.u.)       :      5.25192
Magnitude (Debye)      :     13.34931

Rotational constants in cm-1:     0.019696     0.011484     0.010168
Rotational constants in MHz :   590.484923   344.289891   304.826181

                             ****ORCA TERMINATED NORMALLY****
TOTAL RUN TIME: 0 days 20 hours 45 minutes 42 seconds 561 msec
