                         Program Version 4.1.2  - RELEASE  -
|  1> ! aug-cc-pVTZ aug-cc-pVTZ/C DLPNO-CCSD(T1) TightSCF NormalPNO UNO MiniPrint AutoAux
|  2> %pal nproc 10 end
|  3> %maxcore 20000
|  4> %mdci
|  5>      density none
|  6> end
|  7>
|  8> * xyz 0 6
|  9>  O     -0.32647500     -0.13461400     -0.61888300
| 10>  C     -1.16553800     -1.08798100     -0.54922100
| 11>  C     -3.19661200      0.04038000      0.05206000
| 12>  C     -2.32035300      1.04206300     -0.21589900
| 13>  C     -2.22727400      1.65227000     -1.58285400
| 14> Fe      1.46664600      0.07642000      0.05866900
| 15> Cl      2.09562400      1.98544200     -0.79735300
| 16>  C     -1.55651500      1.76528600      0.85450200
| 17> Cl      2.43784900     -1.73020600     -0.72784600
| 18> Cl      1.38440500      0.06530500      2.25609600
| 19>  H     -3.79723400     -0.32902300     -0.77726500
| 20>  H     -2.19211600      2.57344500      1.24294900
| 21>  H     -1.27801400      1.13264800      1.69839200
| 22>  H     -0.65165200      2.22915300      0.45448800
| 23>  H     -2.55582500      2.69812000     -1.51717600
| 24>  H     -1.19162500      1.66723000     -1.93651300
| 25>  H     -2.86405100      1.14922000     -2.31527200
| 26>  C     -3.64122500     -0.41016500      1.41642100
| 27>  H     -4.56670300      0.11369000      1.69209700
| 28>  H     -3.86890400     -1.48095600      1.43913200
| 29>  H     -2.90654700     -0.20026400      2.19730000
| 30>  C     -1.13505800     -2.00533200      0.63547500
| 31>  H     -2.02551000     -2.62981600      0.70695500
| 32>  H     -0.26586900     -2.66114800      0.47407800
| 33>  H     -0.95897700     -1.46333700      1.56490100
| 34>  C     -1.69785500     -1.63072200     -1.84446700
| 35>  H     -0.90416700     -2.28824800     -2.22949600
| 36>  H     -2.60362500     -2.22436600     -1.71166300
| 37>  H     -1.85152900     -0.84035400     -2.57858100
| 38> *
| 39>
| 40>
| 41>                          ****END OF INPUT****

CARTESIAN COORDINATES (ANGSTROEM)
---------------------------------
  O     -0.326475   -0.134614   -0.618883
  C     -1.165538   -1.087981   -0.549221
  C     -3.196612    0.040380    0.052060
  C     -2.320353    1.042063   -0.215899
  C     -2.227274    1.652270   -1.582854
  Fe     1.466646    0.076420    0.058669
  Cl     2.095624    1.985442   -0.797353
  C     -1.556515    1.765286    0.854502
  Cl     2.437849   -1.730206   -0.727846
  Cl     1.384405    0.065305    2.256096
  H     -3.797234   -0.329023   -0.777265
  H     -2.192116    2.573445    1.242949
  H     -1.278014    1.132648    1.698392
  H     -0.651652    2.229153    0.454488
  H     -2.555825    2.698120   -1.517176
  H     -1.191625    1.667230   -1.936513
  H     -2.864051    1.149220   -2.315272
  C     -3.641225   -0.410165    1.416421
  H     -4.566703    0.113690    1.692097
  H     -3.868904   -1.480956    1.439132
  H     -2.906547   -0.200264    2.197300
  C     -1.135058   -2.005332    0.635475
  H     -2.025510   -2.629816    0.706955
  H     -0.265869   -2.661148    0.474078
  H     -0.958977   -1.463337    1.564901
  C     -1.697855   -1.630722   -1.844467
  H     -0.904167   -2.288248   -2.229496
  H     -2.603625   -2.224366   -1.711663
  H     -1.851529   -0.840354   -2.578581

ORBITAL ENERGIES
----------------
                 SPIN UP ORBITALS
  NO   OCC          E(Eh)            E(eV)
   0   1.0000    -261.569357     -7117.6641
   1   1.0000    -104.788267     -2851.4337
   2   1.0000    -104.787248     -2851.4060
   3   1.0000    -104.785964     -2851.3711
   4   1.0000     -32.237122      -877.2167
   5   1.0000     -27.713480      -754.1221
   6   1.0000     -27.712524      -754.0961
   7   1.0000     -27.712400      -754.0927
   8   1.0000     -20.595087      -560.4208
   9   1.0000     -11.421364      -310.7911
  10   1.0000     -11.290730      -307.2364
  11   1.0000     -11.274034      -306.7821
  12   1.0000     -11.269395      -306.6558
  13   1.0000     -11.251612      -306.1719
  14   1.0000     -11.248378      -306.0839
  15   1.0000     -11.244894      -305.9891
  16   1.0000     -11.239688      -305.8474
  17   1.0000     -10.514934      -286.1259
  18   1.0000     -10.513863      -286.0968
  19   1.0000     -10.512548      -286.0610
  20   1.0000      -7.981787      -217.1955
  21   1.0000      -7.981007      -217.1742
  22   1.0000      -7.980965      -217.1731
  23   1.0000      -7.980743      -217.1671
  24   1.0000      -7.979959      -217.1457
  25   1.0000      -7.979873      -217.1434
  26   1.0000      -7.979339      -217.1288
  27   1.0000      -7.978670      -217.1107
  28   1.0000      -7.978606      -217.1089
  29   1.0000      -4.592251      -124.9615
  30   1.0000      -3.205366       -87.2224
  31   1.0000      -3.203808       -87.1801
  32   1.0000      -3.203558       -87.1732
  33   1.0000      -1.450402       -39.4674
  34   1.0000      -1.140361       -31.0308
  35   1.0000      -1.098613       -29.8948
  36   1.0000      -1.061486       -28.8845
  37   1.0000      -1.056102       -28.7380
  38   1.0000      -1.054181       -28.6857
  39   1.0000      -1.026717       -27.9384
  40   1.0000      -1.009737       -27.4763
  41   1.0000      -0.968322       -26.3494
  42   1.0000      -0.938223       -25.5303
  43   1.0000      -0.921574       -25.0773
  44   1.0000      -0.921414       -25.0729
  45   1.0000      -0.911076       -24.7916
  46   1.0000      -0.910759       -24.7830
  47   1.0000      -0.906849       -24.6766
  48   1.0000      -0.805855       -21.9284
  49   1.0000      -0.739742       -20.1294
  50   1.0000      -0.704447       -19.1690
  51   1.0000      -0.699223       -19.0268
  52   1.0000      -0.691668       -18.8212
  53   1.0000      -0.662445       -18.0260
  54   1.0000      -0.630231       -17.1494
  55   1.0000      -0.620429       -16.8827
  56   1.0000      -0.602819       -16.4035
  57   1.0000      -0.600429       -16.3385
  58   1.0000      -0.583741       -15.8844
  59   1.0000      -0.578583       -15.7441
  60   1.0000      -0.564091       -15.3497
  61   1.0000      -0.562389       -15.3034
  62   1.0000      -0.551688       -15.0122
  63   1.0000      -0.543963       -14.8020
  64   1.0000      -0.535783       -14.5794
  65   1.0000      -0.525059       -14.2876
  66   1.0000      -0.504675       -13.7329
  67   1.0000      -0.495725       -13.4894
  68   1.0000      -0.474585       -12.9141
  69   1.0000      -0.468753       -12.7554
  70   1.0000      -0.442856       -12.0507
  71   1.0000      -0.436765       -11.8850
  72   1.0000      -0.435268       -11.8442
  73   1.0000      -0.426989       -11.6190
  74   1.0000      -0.425190       -11.5700
  75   1.0000      -0.425004       -11.5649
  76   1.0000      -0.362556        -9.8657
  77   0.0000       0.012491         0.3399
  78   0.0000       0.023476         0.6388
  79   0.0000       0.023647         0.6435
  80   0.0000       0.030373         0.8265
  81   0.0000       0.039573         1.0768

                 SPIN DOWN ORBITALS
  NO   OCC          E(Eh)            E(eV)
   0   1.0000    -261.565794     -7117.5671
   1   1.0000    -104.786792     -2851.3936
   2   1.0000    -104.785751     -2851.3652
   3   1.0000    -104.784470     -2851.3304
   4   1.0000     -32.075121      -872.8084
   5   1.0000     -27.553038      -749.7563
   6   1.0000     -27.553002      -749.7553
   7   1.0000     -27.552783      -749.7493
   8   1.0000     -20.591209      -560.3153
   9   1.0000     -11.421177      -310.7860
  10   1.0000     -11.290870      -307.2402
  11   1.0000     -11.273939      -306.7795
  12   1.0000     -11.269385      -306.6556
  13   1.0000     -11.251307      -306.1636
  14   1.0000     -11.248409      -306.0848
  15   1.0000     -11.244869      -305.9884
  16   1.0000     -11.239692      -305.8476
  17   1.0000     -10.513357      -286.0830
  18   1.0000     -10.512262      -286.0532
  19   1.0000     -10.510958      -286.0177
  20   1.0000      -7.979266      -217.1269
  21   1.0000      -7.978579      -217.1082
  22   1.0000      -7.978515      -217.1064
  23   1.0000      -7.978141      -217.0963
  24   1.0000      -7.977510      -217.0791
  25   1.0000      -7.977407      -217.0763
  26   1.0000      -7.976947      -217.0638
  27   1.0000      -7.976116      -217.0412
  28   1.0000      -7.976030      -217.0388
  29   1.0000      -4.150061      -112.9289
  30   1.0000      -2.671651       -72.6993
  31   1.0000      -2.671577       -72.6973
  32   1.0000      -2.671250       -72.6884
  33   1.0000      -1.440566       -39.1998
  34   1.0000      -1.139833       -31.0164
  35   1.0000      -1.096110       -29.8267
  36   1.0000      -1.046222       -28.4691
  37   1.0000      -1.034032       -28.1374
  38   1.0000      -1.032580       -28.0979
  39   1.0000      -1.026218       -27.9248
  40   1.0000      -1.008959       -27.4552
  41   1.0000      -0.968196       -26.3460
  42   1.0000      -0.907624       -24.6977
  43   1.0000      -0.819624       -22.3031
  44   1.0000      -0.739801       -20.1310
  45   1.0000      -0.707483       -19.2516
  46   1.0000      -0.698878       -19.0174
  47   1.0000      -0.690075       -18.7779
  48   1.0000      -0.662436       -18.0258
  49   1.0000      -0.630134       -17.1468
  50   1.0000      -0.620106       -16.8739
  51   1.0000      -0.602585       -16.3972
  52   1.0000      -0.600339       -16.3360
  53   1.0000      -0.583297       -15.8723
  54   1.0000      -0.578010       -15.7285
  55   1.0000      -0.563852       -15.3432
  56   1.0000      -0.562250       -15.2996
  57   1.0000      -0.548723       -14.9315
  58   1.0000      -0.543763       -14.7966
  59   1.0000      -0.535145       -14.5620
  60   1.0000      -0.516741       -14.0612
  61   1.0000      -0.504675       -13.7329
  62   1.0000      -0.494577       -13.4581
  63   1.0000      -0.479590       -13.0503
  64   1.0000      -0.478744       -13.0273
  65   1.0000      -0.449751       -12.2383
  66   1.0000      -0.446755       -12.1568
  67   1.0000      -0.444344       -12.0912
  68   1.0000      -0.429402       -11.6846
  69   1.0000      -0.425297       -11.5729
  70   1.0000      -0.410322       -11.1654
  71   1.0000      -0.361387        -9.8338
  72   0.0000       0.012483         0.3397
  73   0.0000       0.023442         0.6379
  74   0.0000       0.023620         0.6427
  75   0.0000       0.030367         0.8263
  76   0.0000       0.039533         1.0757

E(0)                                       ...  -3028.437358992
E(0)                                       ...  -3028.437358992
E(CORR)(strong-pairs)                      ...     -2.871221585
E(CORR)(weak-pairs)                        ...     -0.036534019
E(CORR)(corrected)                         ...     -2.907755604
E(TOT)                                     ...  -3031.345114596
E(CCSD(T))                                 ...  -3031.464119696
FINAL SINGLE POINT ENERGY     -3031.464119696312

DIPOLE MOMENT
-------------
                                X             Y             Z
Electronic contribution:     43.09352       2.30599       2.20934
Nuclear contribution   :    -46.79415      -3.18649      -2.77069
                        -----------------------------------------
Total Dipole Moment    :     -3.70063      -0.88049      -0.56135
                        -----------------------------------------
Magnitude (a.u.)       :      3.84513
Magnitude (Debye)      :      9.77355

Rotational constants in cm-1:     0.019469     0.010989     0.010349
Rotational constants in MHz :   583.662085   329.455427   310.245328

                             ****ORCA TERMINATED NORMALLY****
TOTAL RUN TIME: 0 days 19 hours 5 minutes 46 seconds 815 msec
