                         Program Version 4.1.2  - RELEASE  -
|  1> ! aug-cc-pVTZ aug-cc-pVTZ/C DLPNO-CCSD(T1) TightSCF NormalPNO UNO MiniPrint AutoAux
|  2> %pal nproc 10 end
|  3> %maxcore 20000
|  4> %mdci
|  5>      density none
|  6> end
|  7>
|  8> * xyz 0 6
|  9>  O     -0.32496500     -0.12738800     -0.66689800
| 10>  C     -1.24078700     -1.04781900     -0.57871300
| 11>  C     -2.97127400     -0.14078200      0.19115700
| 12>  C     -2.36141200      1.03894200     -0.16436600
| 13>  C     -2.49283700      1.62110700     -1.53207700
| 14> Fe      1.42726700      0.08178500      0.03095700
| 15> Cl      2.02964900      2.05103300     -0.72903000
| 16>  C     -1.55908700      1.85252200      0.79323900
| 17> Cl      2.53225300     -1.64952300     -0.75089600
| 18> Cl      1.26643100      0.02716200      2.23967100
| 19>  H     -3.67419300     -0.55507100     -0.52822900
| 20>  H     -2.23224300      2.60926900      1.22454800
| 21>  H     -1.13981800      1.27450500      1.61620900
| 22>  H     -0.75135900      2.38438000      0.28315100
| 23>  H     -2.81536800      2.66598000     -1.43954500
| 24>  H     -1.50737100      1.64038600     -2.01343600
| 25>  H     -3.20975200      1.09064700     -2.16150900
| 26>  C     -3.22070300     -0.54634800      1.62579100
| 27>  H     -4.09188200     -0.00024000      2.00970200
| 28>  H     -3.44816900     -1.61193200      1.70594200
| 29>  H     -2.37901600     -0.32752500      2.28621300
| 30>  C     -1.03777600     -2.12558200      0.45942900
| 31>  H     -1.89209400     -2.79923400      0.54007000
| 32>  H     -0.17269600     -2.70434000      0.10518200
| 33>  H     -0.77397300     -1.71627500      1.43433900
| 34>  C     -1.76991000     -1.53838000     -1.91069900
| 35>  H     -0.95051500     -2.11927500     -2.35451300
| 36>  H     -2.63945200     -2.19029400     -1.80333300
| 37>  H     -1.99024700     -0.71765300     -2.59272000
| 38> *
| 39>
| 40>
| 41>                          ****END OF INPUT****

CARTESIAN COORDINATES (ANGSTROEM)
---------------------------------
  O     -0.324965   -0.127388   -0.666898
  C     -1.240787   -1.047819   -0.578713
  C     -2.971274   -0.140782    0.191157
  C     -2.361412    1.038942   -0.164366
  C     -2.492837    1.621107   -1.532077
  Fe     1.427267    0.081785    0.030957
  Cl     2.029649    2.051033   -0.729030
  C     -1.559087    1.852522    0.793239
  Cl     2.532253   -1.649523   -0.750896
  Cl     1.266431    0.027162    2.239671
  H     -3.674193   -0.555071   -0.528229
  H     -2.232243    2.609269    1.224548
  H     -1.139818    1.274505    1.616209
  H     -0.751359    2.384380    0.283151
  H     -2.815368    2.665980   -1.439545
  H     -1.507371    1.640386   -2.013436
  H     -3.209752    1.090647   -2.161509
  C     -3.220703   -0.546348    1.625791
  H     -4.091882   -0.000240    2.009702
  H     -3.448169   -1.611932    1.705942
  H     -2.379016   -0.327525    2.286213
  C     -1.037776   -2.125582    0.459429
  H     -1.892094   -2.799234    0.540070
  H     -0.172696   -2.704340    0.105182
  H     -0.773973   -1.716275    1.434339
  C     -1.769910   -1.538380   -1.910699
  H     -0.950515   -2.119275   -2.354513
  H     -2.639452   -2.190294   -1.803333
  H     -1.990247   -0.717653   -2.592720

ORBITAL ENERGIES
----------------
                 SPIN UP ORBITALS
  NO   OCC          E(Eh)            E(eV)
   0   1.0000    -261.558378     -7117.3653
   1   1.0000    -104.781792     -2851.2575
   2   1.0000    -104.778819     -2851.1766
   3   1.0000    -104.778593     -2851.1705
   4   1.0000     -32.226236      -876.9205
   5   1.0000     -27.702335      -753.8189
   6   1.0000     -27.701810      -753.8046
   7   1.0000     -27.701626      -753.7996
   8   1.0000     -20.569368      -559.7209
   9   1.0000     -11.403080      -310.2936
  10   1.0000     -11.333404      -308.3976
  11   1.0000     -11.269901      -306.6696
  12   1.0000     -11.264217      -306.5149
  13   1.0000     -11.263200      -306.4872
  14   1.0000     -11.256501      -306.3050
  15   1.0000     -11.254729      -306.2567
  16   1.0000     -11.252580      -306.1983
  17   1.0000     -10.508418      -285.9486
  18   1.0000     -10.505389      -285.8662
  19   1.0000     -10.505195      -285.8609
  20   1.0000      -7.975293      -217.0188
  21   1.0000      -7.974459      -216.9961
  22   1.0000      -7.974422      -216.9951
  23   1.0000      -7.972197      -216.9345
  24   1.0000      -7.972051      -216.9305
  25   1.0000      -7.971498      -216.9155
  26   1.0000      -7.971423      -216.9134
  27   1.0000      -7.971292      -216.9099
  28   1.0000      -7.971214      -216.9078
  29   1.0000      -4.581505      -124.6691
  30   1.0000      -3.194283       -86.9209
  31   1.0000      -3.193373       -86.8961
  32   1.0000      -3.192981       -86.8854
  33   1.0000      -1.417801       -38.5803
  34   1.0000      -1.164196       -31.6794
  35   1.0000      -1.088008       -29.6062
  36   1.0000      -1.053369       -28.6636
  37   1.0000      -1.047898       -28.5148
  38   1.0000      -1.045692       -28.4547
  39   1.0000      -1.038659       -28.2633
  40   1.0000      -0.996450       -27.1148
  41   1.0000      -0.984006       -26.7762
  42   1.0000      -0.929803       -25.3012
  43   1.0000      -0.919753       -25.0278
  44   1.0000      -0.910885       -24.7865
  45   1.0000      -0.910762       -24.7831
  46   1.0000      -0.901373       -24.5276
  47   1.0000      -0.901023       -24.5181
  48   1.0000      -0.792075       -21.5535
  49   1.0000      -0.756565       -20.5872
  50   1.0000      -0.694297       -18.8928
  51   1.0000      -0.691671       -18.8213
  52   1.0000      -0.681229       -18.5372
  53   1.0000      -0.664195       -18.0737
  54   1.0000      -0.644253       -17.5310
  55   1.0000      -0.622004       -16.9256
  56   1.0000      -0.602921       -16.4063
  57   1.0000      -0.595413       -16.2020
  58   1.0000      -0.584633       -15.9087
  59   1.0000      -0.575081       -15.6488
  60   1.0000      -0.572807       -15.5869
  61   1.0000      -0.563044       -15.3212
  62   1.0000      -0.554662       -15.0931
  63   1.0000      -0.550649       -14.9839
  64   1.0000      -0.542353       -14.7582
  65   1.0000      -0.520607       -14.1664
  66   1.0000      -0.518340       -14.1047
  67   1.0000      -0.483521       -13.1573
  68   1.0000      -0.466803       -12.7024
  69   1.0000      -0.459513       -12.5040
  70   1.0000      -0.433940       -11.8081
  71   1.0000      -0.429836       -11.6964
  72   1.0000      -0.428351       -11.6560
  73   1.0000      -0.419776       -11.4227
  74   1.0000      -0.418330       -11.3833
  75   1.0000      -0.417706       -11.3663
  76   1.0000      -0.379556       -10.3283
  77   0.0000       0.010465         0.2848
  78   0.0000       0.020898         0.5687
  79   0.0000       0.022200         0.6041
  80   0.0000       0.030072         0.8183
  81   0.0000       0.037324         1.0156

                 SPIN DOWN ORBITALS
  NO   OCC          E(Eh)            E(eV)
   0   1.0000    -261.554827     -7117.2687
   1   1.0000    -104.780400     -2851.2196
   2   1.0000    -104.777397     -2851.1379
   3   1.0000    -104.777125     -2851.1305
   4   1.0000     -32.064180      -872.5107
   5   1.0000     -27.542171      -749.4606
   6   1.0000     -27.542076      -749.4580
   7   1.0000     -27.541724      -749.4484
   8   1.0000     -20.564657      -559.5928
   9   1.0000     -11.403019      -310.2919
  10   1.0000     -11.333318      -308.3953
  11   1.0000     -11.269721      -306.6647
  12   1.0000     -11.264223      -306.5151
  13   1.0000     -11.263091      -306.4843
  14   1.0000     -11.256477      -306.3043
  15   1.0000     -11.254748      -306.2573
  16   1.0000     -11.252616      -306.1992
  17   1.0000     -10.506923      -285.9079
  18   1.0000     -10.503871      -285.8249
  19   1.0000     -10.503624      -285.8181
  20   1.0000      -7.972801      -216.9509
  21   1.0000      -7.972240      -216.9357
  22   1.0000      -7.972169      -216.9337
  23   1.0000      -7.969851      -216.8707
  24   1.0000      -7.969536      -216.8621
  25   1.0000      -7.969109      -216.8505
  26   1.0000      -7.969019      -216.8480
  27   1.0000      -7.968871      -216.8440
  28   1.0000      -7.968783      -216.8416
  29   1.0000      -4.139199      -112.6333
  30   1.0000      -2.660887       -72.4064
  31   1.0000      -2.660870       -72.4060
  32   1.0000      -2.660171       -72.3869
  33   1.0000      -1.405830       -38.2546
  34   1.0000      -1.163302       -31.6551
  35   1.0000      -1.085300       -29.5325
  36   1.0000      -1.038916       -28.2703
  37   1.0000      -1.038034       -28.2463
  38   1.0000      -1.026935       -27.9443
  39   1.0000      -1.024757       -27.8850
  40   1.0000      -0.995737       -27.0954
  41   1.0000      -0.983791       -26.7703
  42   1.0000      -0.923545       -25.1309
  43   1.0000      -0.805487       -21.9184
  44   1.0000      -0.756852       -20.5950
  45   1.0000      -0.694643       -18.9022
  46   1.0000      -0.692542       -18.8450
  47   1.0000      -0.681818       -18.5532
  48   1.0000      -0.663317       -18.0498
  49   1.0000      -0.644104       -17.5269
  50   1.0000      -0.621731       -16.9182
  51   1.0000      -0.602119       -16.3845
  52   1.0000      -0.595408       -16.2019
  53   1.0000      -0.584506       -15.9052
  54   1.0000      -0.574700       -15.6384
  55   1.0000      -0.572632       -15.5821
  56   1.0000      -0.562987       -15.3197
  57   1.0000      -0.554095       -15.0777
  58   1.0000      -0.550109       -14.9692
  59   1.0000      -0.537871       -14.6362
  60   1.0000      -0.520354       -14.1595
  61   1.0000      -0.509525       -13.8649
  62   1.0000      -0.481753       -13.1092
  63   1.0000      -0.471579       -12.8323
  64   1.0000      -0.469580       -12.7779
  65   1.0000      -0.442298       -12.0355
  66   1.0000      -0.439314       -11.9543
  67   1.0000      -0.437520       -11.9055
  68   1.0000      -0.423736       -11.5304
  69   1.0000      -0.417789       -11.3686
  70   1.0000      -0.403951       -10.9921
  71   1.0000      -0.377159       -10.2630
  72   0.0000       0.010461         0.2847
  73   0.0000       0.020871         0.5679
  74   0.0000       0.022180         0.6035
  75   0.0000       0.030073         0.8183
  76   0.0000       0.037041         1.0079

E(0)                                       ...  -3028.428100977
E(0)                                       ...  -3028.428100977
E(CORR)(strong-pairs)                      ...     -2.873057335
E(CORR)(weak-pairs)                        ...     -0.036326911
E(CORR)(corrected)                         ...     -2.909384246
E(TOT)                                     ...  -3031.337485223
E(CCSD(T))                                 ...  -3031.457293612
FINAL SINGLE POINT ENERGY     -3031.457293611975

DIPOLE MOMENT
-------------
                                X             Y             Z
Electronic contribution:     41.41764       3.47399       2.24707
Nuclear contribution   :    -45.74102      -3.85882      -2.79792
                        -----------------------------------------
Total Dipole Moment    :     -4.32338      -0.38482      -0.55085
                        -----------------------------------------
Magnitude (a.u.)       :      4.37529
Magnitude (Debye)      :     11.12110

Rotational constants in cm-1:     0.019238     0.011324     0.010612
Rotational constants in MHz :   576.736486   339.496201   318.132272

                             ****ORCA TERMINATED NORMALLY****
TOTAL RUN TIME: 1 days 2 hours 14 minutes 21 seconds 33 msec
