                         Program Version 4.1.2  - RELEASE  -
|  1> ! aug-cc-pVTZ aug-cc-pVTZ/C DLPNO-CCSD(T1) TightSCF NormalPNO UNO MiniPrint AutoAux
|  2> %pal nproc 10 end
|  3> %maxcore 20000
|  4> %mdci
|  5>      density none
|  6> end
|  7>
|  8> * xyz 0 6
|  9>  O     -0.33197000     -0.16826600     -0.62768500
| 10>  C     -1.22931100     -1.12116500     -0.47507700
| 11>  C     -2.65306700     -0.39498900      0.55234100
| 12>  C     -2.64873400      0.86300500     -0.05400300
| 13>  C     -3.42993700      1.13273800     -1.29420900
| 14> Fe      1.43100900      0.14742400     -0.04599300
| 15> Cl      1.84581200      2.14363500     -0.88026100
| 16>  C     -1.80763100      1.97112100      0.43457200
| 17> Cl      2.65594100     -1.50291600     -0.81877900
| 18> Cl      1.35808200      0.19724500      2.17062800
| 19>  H     -3.45279200     -1.05220000      0.21098800
| 20>  H     -2.24058100      2.94682400      0.19642100
| 21>  H     -1.55352600      1.90702600      1.49234800
| 22>  H     -0.85966400      1.90033900     -0.12865900
| 23>  H     -4.14020700      1.94393300     -1.08349900
| 24>  H     -2.76882100      1.50531900     -2.08802200
| 25>  H     -3.98920300      0.26731100     -1.65085500
| 26>  C     -2.33350100     -0.51618100      2.03580100
| 27>  H     -3.04510300      0.08336700      2.61478200
| 28>  H     -2.43269300     -1.55138600      2.36649700
| 29>  H     -1.32413600     -0.17771800      2.27795800
| 30>  C     -0.79964300     -2.30612900      0.38372100
| 31>  H     -1.61985200     -3.00454000      0.56842600
| 32>  H     -0.02199700     -2.82328300     -0.19157100
| 33>  H     -0.35425700     -1.99137300      1.32691100
| 34>  C     -1.84475200     -1.56493700     -1.79866700
| 35>  H     -1.07700400     -2.15515600     -2.31156700
| 36>  H     -2.72893600     -2.19437000     -1.66507800
| 37>  H     -2.07946000     -0.71717500     -2.44164000
| 38> *
| 39>
| 40>
| 41>                          ****END OF INPUT****

CARTESIAN COORDINATES (ANGSTROEM)
---------------------------------
  O     -0.331970   -0.168266   -0.627685
  C     -1.229311   -1.121165   -0.475077
  C     -2.653067   -0.394989    0.552341
  C     -2.648734    0.863005   -0.054003
  C     -3.429937    1.132738   -1.294209
  Fe     1.431009    0.147424   -0.045993
  Cl     1.845812    2.143635   -0.880261
  C     -1.807631    1.971121    0.434572
  Cl     2.655941   -1.502916   -0.818779
  Cl     1.358082    0.197245    2.170628
  H     -3.452792   -1.052200    0.210988
  H     -2.240581    2.946824    0.196421
  H     -1.553526    1.907026    1.492348
  H     -0.859664    1.900339   -0.128659
  H     -4.140207    1.943933   -1.083499
  H     -2.768821    1.505319   -2.088022
  H     -3.989203    0.267311   -1.650855
  C     -2.333501   -0.516181    2.035801
  H     -3.045103    0.083367    2.614782
  H     -2.432693   -1.551386    2.366497
  H     -1.324136   -0.177718    2.277958
  C     -0.799643   -2.306129    0.383721
  H     -1.619852   -3.004540    0.568426
  H     -0.021997   -2.823283   -0.191571
  H     -0.354257   -1.991373    1.326911
  C     -1.844752   -1.564937   -1.798667
  H     -1.077004   -2.155156   -2.311567
  H     -2.728936   -2.194370   -1.665078
  H     -2.079460   -0.717175   -2.441640

ORBITAL ENERGIES
----------------
                 SPIN UP ORBITALS
  NO   OCC          E(Eh)            E(eV)
   0   1.0000    -261.549764     -7117.1309
   1   1.0000    -104.776450     -2851.1121
   2   1.0000    -104.773370     -2851.0283
   3   1.0000    -104.772697     -2851.0100
   4   1.0000     -32.217677      -876.6876
   5   1.0000     -27.693637      -753.5822
   6   1.0000     -27.693350      -753.5744
   7   1.0000     -27.693097      -753.5675
   8   1.0000     -20.552480      -559.2614
   9   1.0000     -11.378508      -309.6250
  10   1.0000     -11.366306      -309.2929
  11   1.0000     -11.287206      -307.1405
  12   1.0000     -11.280348      -306.9539
  13   1.0000     -11.263455      -306.4942
  14   1.0000     -11.252833      -306.2051
  15   1.0000     -11.250178      -306.1329
  16   1.0000     -11.245696      -306.0109
  17   1.0000     -10.503074      -285.8032
  18   1.0000     -10.499934      -285.7177
  19   1.0000     -10.499321      -285.7010
  20   1.0000      -7.969962      -216.8737
  21   1.0000      -7.969111      -216.8505
  22   1.0000      -7.969065      -216.8493
  23   1.0000      -7.966761      -216.7866
  24   1.0000      -7.966141      -216.7697
  25   1.0000      -7.966030      -216.7667
  26   1.0000      -7.965945      -216.7644
  27   1.0000      -7.965426      -216.7503
  28   1.0000      -7.965355      -216.7483
  29   1.0000      -4.573060      -124.4393
  30   1.0000      -3.185644       -86.6858
  31   1.0000      -3.185105       -86.6711
  32   1.0000      -3.184634       -86.6583
  33   1.0000      -1.394372       -37.9428
  34   1.0000      -1.182623       -32.1808
  35   1.0000      -1.082616       -29.4595
  36   1.0000      -1.047459       -28.5028
  37   1.0000      -1.043951       -28.4073
  38   1.0000      -1.041355       -28.3367
  39   1.0000      -1.039603       -28.2890
  40   1.0000      -1.004803       -27.3421
  41   1.0000      -0.978861       -26.6362
  42   1.0000      -0.930069       -25.3085
  43   1.0000      -0.914972       -24.8977
  44   1.0000      -0.902487       -24.5579
  45   1.0000      -0.902442       -24.5567
  46   1.0000      -0.893738       -24.3198
  47   1.0000      -0.893231       -24.3060
  48   1.0000      -0.788391       -21.4532
  49   1.0000      -0.767589       -20.8871
  50   1.0000      -0.700853       -19.0712
  51   1.0000      -0.691435       -18.8149
  52   1.0000      -0.670921       -18.2567
  53   1.0000      -0.656854       -17.8739
  54   1.0000      -0.650725       -17.7071
  55   1.0000      -0.628081       -17.0910
  56   1.0000      -0.598051       -16.2738
  57   1.0000      -0.597241       -16.2518
  58   1.0000      -0.591230       -16.0882
  59   1.0000      -0.577885       -15.7250
  60   1.0000      -0.576411       -15.6849
  61   1.0000      -0.564229       -15.3534
  62   1.0000      -0.555461       -15.1149
  63   1.0000      -0.544530       -14.8174
  64   1.0000      -0.529492       -14.4082
  65   1.0000      -0.526839       -14.3360
  66   1.0000      -0.511918       -13.9300
  67   1.0000      -0.472943       -12.8694
  68   1.0000      -0.462213       -12.5774
  69   1.0000      -0.450997       -12.2723
  70   1.0000      -0.426732       -11.6120
  71   1.0000      -0.426380       -11.6024
  72   1.0000      -0.422719       -11.5028
  73   1.0000      -0.414396       -11.2763
  74   1.0000      -0.412693       -11.2300
  75   1.0000      -0.412370       -11.2211
  76   1.0000      -0.395201       -10.7540
  77   0.0000       0.006776         0.1844
  78   0.0000       0.014770         0.4019
  79   0.0000       0.019548         0.5319
  80   0.0000       0.021105         0.5743
  81   0.0000       0.030089         0.8188

                 SPIN DOWN ORBITALS
  NO   OCC          E(Eh)            E(eV)
   0   1.0000    -261.546214     -7117.0343
   1   1.0000    -104.775080     -2851.0749
   2   1.0000    -104.771985     -2850.9907
   3   1.0000    -104.771253     -2850.9707
   4   1.0000     -32.055624      -872.2779
   5   1.0000     -27.533671      -749.2293
   6   1.0000     -27.533518      -749.2251
   7   1.0000     -27.533090      -749.2135
   8   1.0000     -20.547226      -559.1184
   9   1.0000     -11.378472      -309.6240
  10   1.0000     -11.366262      -309.2917
  11   1.0000     -11.287214      -307.1407
  12   1.0000     -11.280166      -306.9489
  13   1.0000     -11.263490      -306.4952
  14   1.0000     -11.252718      -306.2020
  15   1.0000     -11.250199      -306.1335
  16   1.0000     -11.245660      -306.0100
  17   1.0000     -10.501601      -285.7631
  18   1.0000     -10.498453      -285.6774
  19   1.0000     -10.497776      -285.6590
  20   1.0000      -7.967467      -216.8058
  21   1.0000      -7.966954      -216.7918
  22   1.0000      -7.966879      -216.7898
  23   1.0000      -7.964405      -216.7225
  24   1.0000      -7.963743      -216.7045
  25   1.0000      -7.963736      -216.7043
  26   1.0000      -7.963645      -216.7018
  27   1.0000      -7.963011      -216.6845
  28   1.0000      -7.962934      -216.6824
  29   1.0000      -4.130808      -112.4050
  30   1.0000      -2.652653       -72.1823
  31   1.0000      -2.652586       -72.1805
  32   1.0000      -2.651661       -72.1554
  33   1.0000      -1.380960       -37.5778
  34   1.0000      -1.181821       -32.1590
  35   1.0000      -1.079904       -29.3857
  36   1.0000      -1.042906       -28.3789
  37   1.0000      -1.032755       -28.1027
  38   1.0000      -1.021326       -27.7917
  39   1.0000      -1.019195       -27.7337
  40   1.0000      -1.004634       -27.3375
  41   1.0000      -0.978022       -26.6133
  42   1.0000      -0.928448       -25.2643
  43   1.0000      -0.798983       -21.7414
  44   1.0000      -0.770361       -20.9626
  45   1.0000      -0.701442       -19.0872
  46   1.0000      -0.690689       -18.7946
  47   1.0000      -0.671936       -18.2843
  48   1.0000      -0.658111       -17.9081
  49   1.0000      -0.649372       -17.6703
  50   1.0000      -0.627419       -17.0729
  51   1.0000      -0.597711       -16.2645
  52   1.0000      -0.596923       -16.2431
  53   1.0000      -0.590925       -16.0799
  54   1.0000      -0.577835       -15.7237
  55   1.0000      -0.575760       -15.6672
  56   1.0000      -0.563585       -15.3359
  57   1.0000      -0.555247       -15.1090
  58   1.0000      -0.543538       -14.7904
  59   1.0000      -0.528996       -14.3947
  60   1.0000      -0.522071       -14.2063
  61   1.0000      -0.503664       -13.7054
  62   1.0000      -0.471836       -12.8393
  63   1.0000      -0.466087       -12.6829
  64   1.0000      -0.459084       -12.4923
  65   1.0000      -0.437350       -11.9009
  66   1.0000      -0.434008       -11.8100
  67   1.0000      -0.432187       -11.7604
  68   1.0000      -0.423785       -11.5318
  69   1.0000      -0.411620       -11.2007
  70   1.0000      -0.399045       -10.8586
  71   1.0000      -0.389084       -10.5875
  72   0.0000       0.006774         0.1843
  73   0.0000       0.014364         0.3909
  74   0.0000       0.019545         0.5319
  75   0.0000       0.021081         0.5737
  76   0.0000       0.030081         0.8185

E(0)                                       ...  -3028.424666964
E(0)                                       ...  -3028.424666964
E(CORR)(strong-pairs)                      ...     -2.874577408
E(CORR)(weak-pairs)                        ...     -0.036543323
E(CORR)(corrected)                         ...     -2.911120731
E(TOT)                                     ...  -3031.335787694
E(CCSD(T))                                 ...  -3031.455737515
FINAL SINGLE POINT ENERGY     -3031.455737515067

DIPOLE MOMENT
-------------
                                X             Y             Z
Electronic contribution:     40.86421       6.33132       0.63720
Nuclear contribution   :    -45.81769      -6.62776      -0.97815
                        -----------------------------------------
Total Dipole Moment    :     -4.95348      -0.29644      -0.34094
                        -----------------------------------------
Magnitude (a.u.)       :      4.97404
Magnitude (Debye)      :     12.64301

Rotational constants in cm-1:     0.019246     0.011171     0.010485
Rotational constants in MHz :   576.978808   334.903155   314.323625

                             ****ORCA TERMINATED NORMALLY****
TOTAL RUN TIME: 0 days 22 hours 59 minutes 38 seconds 822 msec
