                         Program Version 4.1.2  - RELEASE  -
|  1> ! aug-cc-pVTZ aug-cc-pVTZ/C DLPNO-CCSD(T1) TightSCF NormalPNO UNO MiniPrint AutoAux
|  2> %pal nproc 10 end
|  3> %maxcore 20000
|  4> %mdci
|  5>      density none
|  6> end
|  7>
|  8> * xyz 0 6
|  9>  O      0.14066300      0.46944200     -0.89708000
| 10>  C      0.88488700      1.44628300     -0.67040400
| 11>  C      3.17372000      0.06192200      0.57349800
| 12>  C      2.71482900     -0.91806300     -0.22735500
| 13>  C      3.17593400     -1.03889600     -1.65657100
| 14> Fe     -1.49749700     -0.18481400      0.01841600
| 15> Cl     -2.05685000     -1.97138200     -1.08119400
| 16>  C      1.77074300     -2.00320700      0.20754100
| 17> Cl     -2.79737100      1.55350600     -0.25140800
| 18> Cl     -1.01434800     -0.52949400      2.12787600
| 19>  H      3.90055300      0.75466700      0.14585700
| 20>  H      2.27257400     -2.97861700      0.15055700
| 21>  H      1.39300800     -1.87685100      1.22194300
| 22>  H      0.91202900     -2.06429700     -0.47314900
| 23>  H      3.69337300     -1.99523800     -1.80936300
| 24>  H      2.32062100     -1.03993900     -2.34539100
| 25>  H      3.86218600     -0.23638800     -1.94360700
| 26>  C      2.92156200      0.22994400      2.04663200
| 27>  H      3.75540800     -0.18731800      2.62799600
| 28>  H      2.85323000      1.28865300      2.32124100
| 29>  H      2.00601900     -0.26314700      2.38199500
| 30>  C      0.74729500      2.25321700      0.58038200
| 31>  H      1.61964700      2.88328600      0.75850300
| 32>  H     -0.13335100      2.89834700      0.44387300
| 33>  H      0.54891000      1.61559300      1.44329400
| 34>  C      1.74074000      1.96634400     -1.78154800
| 35>  H      1.23384200      2.85672900     -2.18176200
| 36>  H      2.72004900      2.28238600     -1.41750000
| 37>  H      1.83895400      1.23180300     -2.57936600
| 38> *
| 39>
| 40>
| 41>                          ****END OF INPUT****

CARTESIAN COORDINATES (ANGSTROEM)
---------------------------------
  O      0.140663    0.469442   -0.897080
  C      0.884887    1.446283   -0.670404
  C      3.173720    0.061922    0.573498
  C      2.714829   -0.918063   -0.227355
  C      3.175934   -1.038896   -1.656571
  Fe    -1.497497   -0.184814    0.018416
  Cl    -2.056850   -1.971382   -1.081194
  C      1.770743   -2.003207    0.207541
  Cl    -2.797371    1.553506   -0.251408
  Cl    -1.014348   -0.529494    2.127876
  H      3.900553    0.754667    0.145857
  H      2.272574   -2.978617    0.150557
  H      1.393008   -1.876851    1.221943
  H      0.912029   -2.064297   -0.473149
  H      3.693373   -1.995238   -1.809363
  H      2.320621   -1.039939   -2.345391
  H      3.862186   -0.236388   -1.943607
  C      2.921562    0.229944    2.046632
  H      3.755408   -0.187318    2.627996
  H      2.853230    1.288653    2.321241
  H      2.006019   -0.263147    2.381995
  C      0.747295    2.253217    0.580382
  H      1.619647    2.883286    0.758503
  H     -0.133351    2.898347    0.443873
  H      0.548910    1.615593    1.443294
  C      1.740740    1.966344   -1.781548
  H      1.233842    2.856729   -2.181762
  H      2.720049    2.282386   -1.417500
  H      1.838954    1.231803   -2.579366

ORBITAL ENERGIES
----------------
                 SPIN UP ORBITALS
  NO   OCC          E(Eh)            E(eV)
   0   1.0000    -261.579118     -7117.9297
   1   1.0000    -104.796173     -2851.6489
   2   1.0000    -104.793108     -2851.5654
   3   1.0000    -104.791006     -2851.5082
   4   1.0000     -32.246778      -877.4794
   5   1.0000     -27.723338      -754.3904
   6   1.0000     -27.722073      -754.3559
   7   1.0000     -27.721869      -754.3504
   8   1.0000     -20.629571      -561.3592
   9   1.0000     -11.422375      -310.8186
  10   1.0000     -11.280061      -306.9461
  11   1.0000     -11.274303      -306.7894
  12   1.0000     -11.257377      -306.3288
  13   1.0000     -11.239415      -305.8400
  14   1.0000     -11.238305      -305.8098
  15   1.0000     -11.233553      -305.6805
  16   1.0000     -11.225313      -305.4563
  17   1.0000     -10.522920      -286.3432
  18   1.0000     -10.519814      -286.2587
  19   1.0000     -10.517662      -286.2001
  20   1.0000      -7.989738      -217.4118
  21   1.0000      -7.989011      -217.3920
  22   1.0000      -7.988952      -217.3904
  23   1.0000      -7.986697      -217.3291
  24   1.0000      -7.985909      -217.3076
  25   1.0000      -7.985857      -217.3062
  26   1.0000      -7.984442      -217.2677
  27   1.0000      -7.983796      -217.2501
  28   1.0000      -7.983752      -217.2489
  29   1.0000      -4.601529      -125.2140
  30   1.0000      -3.214716       -87.4769
  31   1.0000      -3.212858       -87.4263
  32   1.0000      -3.212721       -87.4226
  33   1.0000      -1.472404       -40.0662
  34   1.0000      -1.118276       -30.4298
  35   1.0000      -1.103677       -30.0326
  36   1.0000      -1.069731       -29.1089
  37   1.0000      -1.063869       -28.9493
  38   1.0000      -1.060952       -28.8700
  39   1.0000      -1.020938       -27.7811
  40   1.0000      -1.008438       -27.4410
  41   1.0000      -0.953005       -25.9326
  42   1.0000      -0.945310       -25.7232
  43   1.0000      -0.930367       -25.3166
  44   1.0000      -0.930207       -25.3122
  45   1.0000      -0.919256       -25.0142
  46   1.0000      -0.918642       -24.9975
  47   1.0000      -0.890553       -24.2332
  48   1.0000      -0.818187       -22.2640
  49   1.0000      -0.723211       -19.6796
  50   1.0000      -0.716936       -19.5088
  51   1.0000      -0.706657       -19.2291
  52   1.0000      -0.684166       -18.6171
  53   1.0000      -0.649082       -17.6624
  54   1.0000      -0.621291       -16.9062
  55   1.0000      -0.615671       -16.7532
  56   1.0000      -0.604348       -16.4452
  57   1.0000      -0.599984       -16.3264
  58   1.0000      -0.586499       -15.9594
  59   1.0000      -0.580460       -15.7951
  60   1.0000      -0.561349       -15.2751
  61   1.0000      -0.547680       -14.9031
  62   1.0000      -0.545886       -14.8543
  63   1.0000      -0.538441       -14.6517
  64   1.0000      -0.535483       -14.5712
  65   1.0000      -0.522014       -14.2047
  66   1.0000      -0.507194       -13.8014
  67   1.0000      -0.487559       -13.2671
  68   1.0000      -0.479347       -13.0437
  69   1.0000      -0.478490       -13.0204
  70   1.0000      -0.449380       -12.2282
  71   1.0000      -0.442817       -12.0496
  72   1.0000      -0.440955       -11.9990
  73   1.0000      -0.432409       -11.7664
  74   1.0000      -0.431465       -11.7408
  75   1.0000      -0.430147       -11.7049
  76   1.0000      -0.355103        -9.6628
  77   0.0000       0.012669         0.3447
  78   0.0000       0.023991         0.6528
  79   0.0000       0.024845         0.6761
  80   0.0000       0.030981         0.8430
  81   0.0000       0.039499         1.0748

                 SPIN DOWN ORBITALS
  NO   OCC          E(Eh)            E(eV)
   0   1.0000    -261.575526     -7117.8319
   1   1.0000    -104.794667     -2851.6079
   2   1.0000    -104.791539     -2851.5227
   3   1.0000    -104.789419     -2851.4651
   4   1.0000     -32.084811      -873.0721
   5   1.0000     -27.562774      -750.0212
   6   1.0000     -27.562625      -750.0172
   7   1.0000     -27.562555      -750.0153
   8   1.0000     -20.626249      -561.2688
   9   1.0000     -11.422321      -310.8172
  10   1.0000     -11.279957      -306.9432
  11   1.0000     -11.274295      -306.7892
  12   1.0000     -11.257415      -306.3298
  13   1.0000     -11.239367      -305.8387
  14   1.0000     -11.238300      -305.8097
  15   1.0000     -11.233556      -305.6806
  16   1.0000     -11.225320      -305.4565
  17   1.0000     -10.521312      -286.2994
  18   1.0000     -10.518139      -286.2131
  19   1.0000     -10.515978      -286.1543
  20   1.0000      -7.987244      -217.3440
  21   1.0000      -7.986464      -217.3227
  22   1.0000      -7.986429      -217.3218
  23   1.0000      -7.984013      -217.2560
  24   1.0000      -7.983325      -217.2373
  25   1.0000      -7.983233      -217.2348
  26   1.0000      -7.981977      -217.2006
  27   1.0000      -7.981045      -217.1753
  28   1.0000      -7.980963      -217.1730
  29   1.0000      -4.159532      -113.1866
  30   1.0000      -2.681065       -72.9555
  31   1.0000      -2.681026       -72.9544
  32   1.0000      -2.680623       -72.9435
  33   1.0000      -1.464388       -39.8480
  34   1.0000      -1.117973       -30.4216
  35   1.0000      -1.101528       -29.9741
  36   1.0000      -1.053852       -28.6768
  37   1.0000      -1.041206       -28.3326
  38   1.0000      -1.037926       -28.2434
  39   1.0000      -1.019917       -27.7534
  40   1.0000      -1.008276       -27.4366
  41   1.0000      -0.952877       -25.9291
  42   1.0000      -0.890612       -24.2348
  43   1.0000      -0.830489       -22.5987
  44   1.0000      -0.723343       -19.6832
  45   1.0000      -0.718321       -19.5465
  46   1.0000      -0.705950       -19.2099
  47   1.0000      -0.683626       -18.6024
  48   1.0000      -0.649044       -17.6614
  49   1.0000      -0.620689       -16.8898
  50   1.0000      -0.615598       -16.7513
  51   1.0000      -0.604241       -16.4422
  52   1.0000      -0.599922       -16.3247
  53   1.0000      -0.586190       -15.9510
  54   1.0000      -0.578923       -15.7533
  55   1.0000      -0.560543       -15.2532
  56   1.0000      -0.546842       -14.8803
  57   1.0000      -0.544022       -14.8036
  58   1.0000      -0.535518       -14.5722
  59   1.0000      -0.527851       -14.3635
  60   1.0000      -0.521797       -14.1988
  61   1.0000      -0.509211       -13.8563
  62   1.0000      -0.488767       -13.3000
  63   1.0000      -0.486260       -13.2318
  64   1.0000      -0.484933       -13.1957
  65   1.0000      -0.456329       -12.4174
  66   1.0000      -0.453157       -12.3310
  67   1.0000      -0.449990       -12.2448
  68   1.0000      -0.433557       -11.7977
  69   1.0000      -0.431655       -11.7459
  70   1.0000      -0.415388       -11.3033
  71   1.0000      -0.354809        -9.6549
  72   0.0000       0.012652         0.3443
  73   0.0000       0.023966         0.6521
  74   0.0000       0.024805         0.6750
  75   0.0000       0.030934         0.8418
  76   0.0000       0.039430         1.0730

E(0)                                       ...  -3028.475696277
E(0)                                       ...  -3028.475696277
E(CORR)(strong-pairs)                      ...     -2.863887637
E(CORR)(weak-pairs)                        ...     -0.035455200
E(CORR)(corrected)                         ...     -2.899342837
E(TOT)                                     ...  -3031.375039114
E(CCSD(T))                                 ...  -3031.492350306
FINAL SINGLE POINT ENERGY     -3031.492350306003

DIPOLE MOMENT
-------------
                                X             Y             Z
Electronic contribution:    -44.08413      -5.29701       1.77003
Nuclear contribution   :     47.14031       6.97550      -2.38690
                        -----------------------------------------
Total Dipole Moment    :      3.05618       1.67849      -0.61688
                        -----------------------------------------
Magnitude (a.u.)       :      3.54091
Magnitude (Debye)      :      9.00029

Rotational constants in cm-1:     0.018653     0.010497     0.009882
Rotational constants in MHz :   559.211802   314.681495   296.243111

                             ****ORCA TERMINATED NORMALLY****
TOTAL RUN TIME: 0 days 16 hours 5 minutes 7 seconds 593 msec
