                         Program Version 4.1.2  - RELEASE  -
|  1> ! aug-cc-pVTZ aug-cc-pVTZ/C DLPNO-CCSD(T1) TightSCF NormalPNO UNO MiniPrint AutoAux
|  2> %pal nproc 10 end
|  3> %maxcore 20000
|  4> %mdci
|  5>      density none
|  6> end
|  7>
|  8> * xyz 0 6
|  9>  O      0.24352000      0.30087900     -0.83820100
| 10>  C      1.06479700      1.24251000     -0.66083000
| 11>  C      2.98846000      0.15404800      0.50740600
| 12>  C      2.58867000     -0.95930300     -0.14923300
| 13>  C      3.05992200     -1.26907400     -1.54139800
| 14> Fe     -1.46233400     -0.14390200      0.00893200
| 15> Cl     -2.06583700     -2.01157200     -0.93536700
| 16>  C      1.67299100     -1.99031400      0.43537900
| 17> Cl     -2.66557300      1.61473700     -0.49548000
| 18> Cl     -1.12189500     -0.31369200      2.17549200
| 19>  H      3.71664000      0.79129900      0.00679900
| 20>  H      2.20957400     -2.94364500      0.53359000
| 21>  H      1.27244100     -1.72210200      1.41207100
| 22>  H      0.83227400     -2.18144700     -0.24335700
| 23>  H      3.55529700     -2.24842300     -1.55358400
| 24>  H      2.20809000     -1.34672200     -2.23015000
| 25>  H      3.76803100     -0.52882700     -1.92287900
| 26>  C      2.80286400      0.41849900      1.98017100
| 27>  H      3.59219800     -0.08994700      2.54989200
| 28>  H      2.88561300      1.48422700      2.21071000
| 29>  H      1.84294900      0.06332500      2.36267800
| 30>  C      0.86533200      2.22026900      0.45834800
| 31>  H      1.74873100      2.83498500      0.63398100
| 32>  H      0.04407400      2.87559500      0.13145300
| 33>  H      0.54293600      1.73318500      1.37817800
| 34>  C      1.84782800      1.70747400     -1.85609800
| 35>  H      1.20533600      2.44484800     -2.35916900
| 36>  H      2.77779100      2.20668600     -1.58114000
| 37>  H      2.03154700      0.89568100     -2.55713600
| 38> *
| 39>
| 40>
| 41>                          ****END OF INPUT****

CARTESIAN COORDINATES (ANGSTROEM)
---------------------------------
  O      0.243520    0.300879   -0.838201
  C      1.064797    1.242510   -0.660830
  C      2.988460    0.154048    0.507406
  C      2.588670   -0.959303   -0.149233
  C      3.059922   -1.269074   -1.541398
  Fe    -1.462334   -0.143902    0.008932
  Cl    -2.065837   -2.011572   -0.935367
  C      1.672991   -1.990314    0.435379
  Cl    -2.665573    1.614737   -0.495480
  Cl    -1.121895   -0.313692    2.175492
  H      3.716640    0.791299    0.006799
  H      2.209574   -2.943645    0.533590
  H      1.272441   -1.722102    1.412071
  H      0.832274   -2.181447   -0.243357
  H      3.555297   -2.248423   -1.553584
  H      2.208090   -1.346722   -2.230150
  H      3.768031   -0.528827   -1.922879
  C      2.802864    0.418499    1.980171
  H      3.592198   -0.089947    2.549892
  H      2.885613    1.484227    2.210710
  H      1.842949    0.063325    2.362678
  C      0.865332    2.220269    0.458348
  H      1.748731    2.834985    0.633981
  H      0.044074    2.875595    0.131453
  H      0.542936    1.733185    1.378178
  C      1.847828    1.707474   -1.856098
  H      1.205336    2.444848   -2.359169
  H      2.777791    2.206686   -1.581140
  H      2.031547    0.895681   -2.557136

ORBITAL ENERGIES
----------------
                 SPIN UP ORBITALS
  NO   OCC          E(Eh)            E(eV)
   0   1.0000    -261.573113     -7117.7663
   1   1.0000    -104.792116     -2851.5384
   2   1.0000    -104.788744     -2851.4467
   3   1.0000    -104.786969     -2851.3984
   4   1.0000     -32.240851      -877.3182
   5   1.0000     -27.717264      -754.2251
   6   1.0000     -27.716231      -754.1970
   7   1.0000     -27.716046      -754.1920
   8   1.0000     -20.611725      -560.8736
   9   1.0000     -11.420408      -310.7651
  10   1.0000     -11.276765      -306.8564
  11   1.0000     -11.275732      -306.8283
  12   1.0000     -11.269963      -306.6713
  13   1.0000     -11.247999      -306.0736
  14   1.0000     -11.247091      -306.0489
  15   1.0000     -11.239102      -305.8315
  16   1.0000     -11.232615      -305.6550
  17   1.0000     -10.518820      -286.2317
  18   1.0000     -10.515426      -286.1393
  19   1.0000     -10.513602      -286.0896
  20   1.0000      -7.985661      -217.3009
  21   1.0000      -7.984890      -217.2799
  22   1.0000      -7.984844      -217.2786
  23   1.0000      -7.982302      -217.2095
  24   1.0000      -7.981521      -217.1882
  25   1.0000      -7.981465      -217.1867
  26   1.0000      -7.980394      -217.1576
  27   1.0000      -7.979726      -217.1394
  28   1.0000      -7.979676      -217.1380
  29   1.0000      -4.595783      -125.0576
  30   1.0000      -3.208864       -87.3176
  31   1.0000      -3.207252       -87.2738
  32   1.0000      -3.207084       -87.2692
  33   1.0000      -1.456778       -39.6410
  34   1.0000      -1.132926       -30.8285
  35   1.0000      -1.098657       -29.8960
  36   1.0000      -1.064900       -28.9774
  37   1.0000      -1.059120       -28.8201
  38   1.0000      -1.056270       -28.7426
  39   1.0000      -1.023988       -27.8641
  40   1.0000      -1.007965       -27.4281
  41   1.0000      -0.962965       -26.2036
  42   1.0000      -0.940398       -25.5895
  43   1.0000      -0.924746       -25.1636
  44   1.0000      -0.924655       -25.1612
  45   1.0000      -0.914217       -24.8771
  46   1.0000      -0.913530       -24.8584
  47   1.0000      -0.900765       -24.5111
  48   1.0000      -0.810336       -22.0504
  49   1.0000      -0.734513       -19.9871
  50   1.0000      -0.708116       -19.2688
  51   1.0000      -0.698461       -19.0061
  52   1.0000      -0.685020       -18.6403
  53   1.0000      -0.659382       -17.9427
  54   1.0000      -0.625421       -17.0186
  55   1.0000      -0.621545       -16.9131
  56   1.0000      -0.604792       -16.4572
  57   1.0000      -0.598848       -16.2955
  58   1.0000      -0.585136       -15.9224
  59   1.0000      -0.577129       -15.7045
  60   1.0000      -0.561054       -15.2671
  61   1.0000      -0.554020       -15.0756
  62   1.0000      -0.548004       -14.9119
  63   1.0000      -0.544074       -14.8050
  64   1.0000      -0.535095       -14.5607
  65   1.0000      -0.528654       -14.3854
  66   1.0000      -0.500586       -13.6216
  67   1.0000      -0.497302       -13.5323
  68   1.0000      -0.475347       -12.9349
  69   1.0000      -0.473939       -12.8965
  70   1.0000      -0.444717       -12.1014
  71   1.0000      -0.439008       -11.9460
  72   1.0000      -0.437191       -11.8966
  73   1.0000      -0.428507       -11.6603
  74   1.0000      -0.427509       -11.6331
  75   1.0000      -0.426274       -11.5995
  76   1.0000      -0.362714        -9.8700
  77   0.0000       0.012494         0.3400
  78   0.0000       0.023226         0.6320
  79   0.0000       0.023910         0.6506
  80   0.0000       0.030463         0.8289
  81   0.0000       0.039111         1.0643

                 SPIN DOWN ORBITALS
  NO   OCC          E(Eh)            E(eV)
   0   1.0000    -261.569539     -7117.6690
   1   1.0000    -104.790648     -2851.4985
   2   1.0000    -104.787201     -2851.4047
   3   1.0000    -104.785426     -2851.3564
   4   1.0000     -32.078844      -872.9097
   5   1.0000     -27.556752      -749.8573
   6   1.0000     -27.556704      -749.8560
   7   1.0000     -27.556565      -749.8523
   8   1.0000     -20.608059      -560.7738
   9   1.0000     -11.420323      -310.7628
  10   1.0000     -11.276762      -306.8563
  11   1.0000     -11.275621      -306.8253
  12   1.0000     -11.269953      -306.6710
  13   1.0000     -11.247951      -306.0723
  14   1.0000     -11.247091      -306.0489
  15   1.0000     -11.239106      -305.8316
  16   1.0000     -11.232632      -305.6555
  17   1.0000     -10.517251      -286.1889
  18   1.0000     -10.513778      -286.0944
  19   1.0000     -10.511962      -286.0450
  20   1.0000      -7.983162      -217.2329
  21   1.0000      -7.982458      -217.2137
  22   1.0000      -7.982415      -217.2126
  23   1.0000      -7.979662      -217.1376
  24   1.0000      -7.978980      -217.1191
  25   1.0000      -7.978889      -217.1166
  26   1.0000      -7.977950      -217.0910
  27   1.0000      -7.977079      -217.0674
  28   1.0000      -7.976996      -217.0651
  29   1.0000      -4.153641      -113.0263
  30   1.0000      -2.675205       -72.7960
  31   1.0000      -2.675193       -72.7957
  32   1.0000      -2.674667       -72.7814
  33   1.0000      -1.447700       -39.3939
  34   1.0000      -1.132569       -30.8188
  35   1.0000      -1.096215       -29.8295
  36   1.0000      -1.049472       -28.5576
  37   1.0000      -1.036993       -28.2180
  38   1.0000      -1.033812       -28.1315
  39   1.0000      -1.023426       -27.8488
  40   1.0000      -1.007299       -27.4100
  41   1.0000      -0.962856       -26.2007
  42   1.0000      -0.900990       -24.5172
  43   1.0000      -0.823393       -22.4057
  44   1.0000      -0.734589       -19.9892
  45   1.0000      -0.710430       -19.3318
  46   1.0000      -0.697558       -18.9815
  47   1.0000      -0.684299       -18.6207
  48   1.0000      -0.659294       -17.9403
  49   1.0000      -0.625369       -17.0172
  50   1.0000      -0.621011       -16.8986
  51   1.0000      -0.604457       -16.4481
  52   1.0000      -0.598757       -16.2930
  53   1.0000      -0.584874       -15.9152
  54   1.0000      -0.575897       -15.6709
  55   1.0000      -0.560323       -15.2472
  56   1.0000      -0.553882       -15.0719
  57   1.0000      -0.546118       -14.8606
  58   1.0000      -0.543979       -14.8024
  59   1.0000      -0.530207       -14.4277
  60   1.0000      -0.521652       -14.1949
  61   1.0000      -0.501805       -13.6548
  62   1.0000      -0.497310       -13.5325
  63   1.0000      -0.483306       -13.1514
  64   1.0000      -0.480877       -13.0853
  65   1.0000      -0.452241       -12.3061
  66   1.0000      -0.449157       -12.2222
  67   1.0000      -0.446326       -12.1451
  68   1.0000      -0.430183       -11.7059
  69   1.0000      -0.427420       -11.6307
  70   1.0000      -0.411917       -11.2088
  71   1.0000      -0.361889        -9.8475
  72   0.0000       0.012478         0.3395
  73   0.0000       0.023202         0.6314
  74   0.0000       0.023880         0.6498
  75   0.0000       0.030381         0.8267
  76   0.0000       0.038973         1.0605

E(0)                                       ...  -3028.456620041
E(0)                                       ...  -3028.456620041
E(CORR)(strong-pairs)                      ...     -2.869621158
E(CORR)(weak-pairs)                        ...     -0.036015735
E(CORR)(corrected)                         ...     -2.905636893
E(TOT)                                     ...  -3031.362256934
E(CCSD(T))                                 ...  -3031.480774199
FINAL SINGLE POINT ENERGY     -3031.480774199431

DIPOLE MOMENT
-------------
                                X             Y             Z
Electronic contribution:    -42.94375      -4.38195       1.62866
Nuclear contribution   :     46.44823       5.62755      -2.25542
                        -----------------------------------------
Total Dipole Moment    :      3.50448       1.24560      -0.62675
                        -----------------------------------------
Magnitude (a.u.)       :      3.77170
Magnitude (Debye)      :      9.58690

Rotational constants in cm-1:     0.018950     0.010920     0.010281
Rotational constants in MHz :   568.101362   327.376748   308.205523

                             ****ORCA TERMINATED NORMALLY****
TOTAL RUN TIME: 0 days 17 hours 41 minutes 20 seconds 468 msec
