                         Program Version 4.1.2  - RELEASE  -
|  1> ! aug-cc-pVTZ aug-cc-pVTZ/C DLPNO-CCSD(T1) TightSCF NormalPNO UNO MiniPrint AutoAux
|  2> %pal nproc 10 end
|  3> %maxcore 20000
|  4> %mdci
|  5>      density none
|  6> end
|  7>
|  8> * xyz 0 6
|  9>  O     -0.35178900     -0.11459400     -0.46218200
| 10>  C     -1.23253400     -1.10192200     -0.31405300
| 11>  C     -2.57923600     -0.42392300      0.66916000
| 12>  C     -2.81989100      0.76129900     -0.05747100
| 13>  C     -3.78889400      0.79281400     -1.18564900
| 14> Fe      1.46054800      0.17071600     -0.07367600
| 15> Cl      1.74509500      2.22802200     -0.81702800
| 16>  C     -2.05614000      1.98231200      0.20300100
| 17> Cl      2.57038900     -1.41505800     -1.11804300
| 18> Cl      1.68002100      0.06090500      2.12913000
| 19>  H     -3.35057600     -1.18121300      0.51781600
| 20>  H     -2.45023800      2.86188000     -0.30890900
| 21>  H     -1.89113000      2.17836100      1.26505900
| 22>  H     -1.04949400      1.75109800     -0.21050700
| 23>  H     -4.60548300      1.47279500     -0.89997400
| 24>  H     -3.33212000      1.23243000     -2.08150100
| 25>  H     -4.21654800     -0.18220000     -1.42067700
| 26>  C     -2.11381200     -0.28949200      2.11700300
| 27>  H     -2.79792000      0.36145800      2.67209100
| 28>  H     -2.11333600     -1.26305600      2.60932100
| 29>  H     -1.10541700      0.12478600      2.18744200
| 30>  C     -0.74223400     -2.28192600      0.53177900
| 31>  H     -1.54381500     -2.99511300      0.74440900
| 32>  H      0.02716700     -2.78652400     -0.06374900
| 33>  H     -0.27666800     -1.95436400      1.46063100
| 34>  C     -1.78519800     -1.58258500     -1.65651800
| 35>  H     -0.98160400     -2.14126300     -2.14731100
| 36>  H     -2.64702100     -2.24769400     -1.54295700
| 37>  H     -2.04168900     -0.74846400     -2.31067700
| 38> *
| 39>
| 40>
| 41>                          ****END OF INPUT****

CARTESIAN COORDINATES (ANGSTROEM)
---------------------------------
  O     -0.351789   -0.114594   -0.462182
  C     -1.232534   -1.101922   -0.314053
  C     -2.579236   -0.423923    0.669160
  C     -2.819891    0.761299   -0.057471
  C     -3.788894    0.792814   -1.185649
  Fe     1.460548    0.170716   -0.073676
  Cl     1.745095    2.228022   -0.817028
  C     -2.056140    1.982312    0.203001
  Cl     2.570389   -1.415058   -1.118043
  Cl     1.680021    0.060905    2.129130
  H     -3.350576   -1.181213    0.517816
  H     -2.450238    2.861880   -0.308909
  H     -1.891130    2.178361    1.265059
  H     -1.049494    1.751098   -0.210507
  H     -4.605483    1.472795   -0.899974
  H     -3.332120    1.232430   -2.081501
  H     -4.216548   -0.182200   -1.420677
  C     -2.113812   -0.289492    2.117003
  H     -2.797920    0.361458    2.672091
  H     -2.113336   -1.263056    2.609321
  H     -1.105417    0.124786    2.187442
  C     -0.742234   -2.281926    0.531779
  H     -1.543815   -2.995113    0.744409
  H      0.027167   -2.786524   -0.063749
  H     -0.276668   -1.954364    1.460631
  C     -1.785198   -1.582585   -1.656518
  H     -0.981604   -2.141263   -2.147311
  H     -2.647021   -2.247694   -1.542957
  H     -2.041689   -0.748464   -2.310677

ORBITAL ENERGIES
----------------
                 SPIN UP ORBITALS
  NO   OCC          E(Eh)            E(eV)
   0   1.0000    -261.544325     -7116.9829
   1   1.0000    -104.771424     -2850.9754
   2   1.0000    -104.770058     -2850.9382
   3   1.0000    -104.768767     -2850.9031
   4   1.0000     -32.212252      -876.5399
   5   1.0000     -27.688169      -753.4334
   6   1.0000     -27.687945      -753.4273
   7   1.0000     -27.687699      -753.4206
   8   1.0000     -20.544031      -559.0315
   9   1.0000     -11.383267      -309.7544
  10   1.0000     -11.363915      -309.2279
  11   1.0000     -11.297790      -307.4285
  12   1.0000     -11.286570      -307.1232
  13   1.0000     -11.270130      -306.6758
  14   1.0000     -11.252798      -306.2042
  15   1.0000     -11.248185      -306.0787
  16   1.0000     -11.239676      -305.8471
  17   1.0000     -10.498022      -285.6657
  18   1.0000     -10.496614      -285.6274
  19   1.0000     -10.495371      -285.5936
  20   1.0000      -7.964899      -216.7359
  21   1.0000      -7.964069      -216.7133
  22   1.0000      -7.964014      -216.7118
  23   1.0000      -7.963442      -216.6963
  24   1.0000      -7.962713      -216.6764
  25   1.0000      -7.962620      -216.6739
  26   1.0000      -7.962200      -216.6625
  27   1.0000      -7.961473      -216.6427
  28   1.0000      -7.961396      -216.6406
  29   1.0000      -4.567694      -124.2933
  30   1.0000      -3.180235       -86.5386
  31   1.0000      -3.179821       -86.5273
  32   1.0000      -3.179269       -86.5123
  33   1.0000      -1.383367       -37.6433
  34   1.0000      -1.193740       -32.4833
  35   1.0000      -1.084048       -29.4985
  36   1.0000      -1.046154       -28.4673
  37   1.0000      -1.042540       -28.3690
  38   1.0000      -1.037249       -28.2250
  39   1.0000      -1.035466       -28.1764
  40   1.0000      -1.013876       -27.5890
  41   1.0000      -0.972821       -26.4718
  42   1.0000      -0.932619       -25.3779
  43   1.0000      -0.910134       -24.7660
  44   1.0000      -0.897224       -24.4147
  45   1.0000      -0.897166       -24.4131
  46   1.0000      -0.888590       -24.1798
  47   1.0000      -0.888235       -24.1701
  48   1.0000      -0.792839       -21.5742
  49   1.0000      -0.769444       -20.9376
  50   1.0000      -0.707634       -19.2557
  51   1.0000      -0.695491       -18.9253
  52   1.0000      -0.672701       -18.3051
  53   1.0000      -0.654556       -17.8114
  54   1.0000      -0.649641       -17.6776
  55   1.0000      -0.631225       -17.1765
  56   1.0000      -0.603618       -16.4253
  57   1.0000      -0.600746       -16.3471
  58   1.0000      -0.591856       -16.1052
  59   1.0000      -0.583210       -15.8700
  60   1.0000      -0.573010       -15.5924
  61   1.0000      -0.562545       -15.3076
  62   1.0000      -0.557675       -15.1751
  63   1.0000      -0.538913       -14.6646
  64   1.0000      -0.533970       -14.5301
  65   1.0000      -0.519470       -14.1355
  66   1.0000      -0.505810       -13.7638
  67   1.0000      -0.468116       -12.7381
  68   1.0000      -0.459362       -12.4999
  69   1.0000      -0.444593       -12.0980
  70   1.0000      -0.426660       -11.6100
  71   1.0000      -0.421979       -11.4826
  72   1.0000      -0.418168       -11.3789
  73   1.0000      -0.410870       -11.1803
  74   1.0000      -0.408749       -11.1226
  75   1.0000      -0.408222       -11.1083
  76   1.0000      -0.403262       -10.9733
  77   0.0000       0.003739         0.1017
  78   0.0000       0.007364         0.2004
  79   0.0000       0.018244         0.4964
  80   0.0000       0.019458         0.5295
  81   0.0000       0.028519         0.7761

                 SPIN DOWN ORBITALS
  NO   OCC          E(Eh)            E(eV)
   0   1.0000    -261.540775     -7116.8863
   1   1.0000    -104.770055     -2850.9381
   2   1.0000    -104.768695     -2850.9011
   3   1.0000    -104.767342     -2850.8643
   4   1.0000     -32.050197      -872.1302
   5   1.0000     -27.528262      -749.0821
   6   1.0000     -27.528093      -749.0775
   7   1.0000     -27.527641      -749.0652
   8   1.0000     -20.538520      -558.8815
   9   1.0000     -11.383216      -309.7531
  10   1.0000     -11.363857      -309.2263
  11   1.0000     -11.297800      -307.4288
  12   1.0000     -11.286398      -307.1185
  13   1.0000     -11.270155      -306.6765
  14   1.0000     -11.252825      -306.2049
  15   1.0000     -11.248080      -306.0758
  16   1.0000     -11.239640      -305.8461
  17   1.0000     -10.496549      -285.6256
  18   1.0000     -10.495154      -285.5877
  19   1.0000     -10.493844      -285.5520
  20   1.0000      -7.962433      -216.6688
  21   1.0000      -7.961894      -216.6542
  22   1.0000      -7.961816      -216.6520
  23   1.0000      -7.961108      -216.6328
  24   1.0000      -7.960472      -216.6154
  25   1.0000      -7.960368      -216.6126
  26   1.0000      -7.959800      -216.5972
  27   1.0000      -7.959102      -216.5782
  28   1.0000      -7.959026      -216.5761
  29   1.0000      -4.125456      -112.2594
  30   1.0000      -2.647322       -72.0373
  31   1.0000      -2.647243       -72.0352
  32   1.0000      -2.646349       -72.0108
  33   1.0000      -1.369324       -37.2612
  34   1.0000      -1.192796       -32.4576
  35   1.0000      -1.081530       -29.4299
  36   1.0000      -1.045133       -28.4395
  37   1.0000      -1.028224       -27.9794
  38   1.0000      -1.017033       -27.6749
  39   1.0000      -1.015381       -27.6299
  40   1.0000      -1.013331       -27.5741
  41   1.0000      -0.972051       -26.4509
  42   1.0000      -0.931722       -25.3535
  43   1.0000      -0.800427       -21.7807
  44   1.0000      -0.774974       -21.0881
  45   1.0000      -0.708233       -19.2720
  46   1.0000      -0.694715       -18.9042
  47   1.0000      -0.672904       -18.3107
  48   1.0000      -0.656900       -17.8752
  49   1.0000      -0.648109       -17.6359
  50   1.0000      -0.630420       -17.1546
  51   1.0000      -0.603880       -16.4324
  52   1.0000      -0.600639       -16.3442
  53   1.0000      -0.590498       -16.0683
  54   1.0000      -0.583226       -15.8704
  55   1.0000      -0.572050       -15.5663
  56   1.0000      -0.562164       -15.2972
  57   1.0000      -0.557527       -15.1711
  58   1.0000      -0.538003       -14.6398
  59   1.0000      -0.533319       -14.5123
  60   1.0000      -0.514550       -14.0016
  61   1.0000      -0.499010       -13.5787
  62   1.0000      -0.466524       -12.6948
  63   1.0000      -0.462117       -12.5749
  64   1.0000      -0.452144       -12.3035
  65   1.0000      -0.432888       -11.7795
  66   1.0000      -0.430346       -11.7103
  67   1.0000      -0.428540       -11.6612
  68   1.0000      -0.426414       -11.6033
  69   1.0000      -0.407810       -11.0971
  70   1.0000      -0.395135       -10.7522
  71   1.0000      -0.394340       -10.7305
  72   0.0000       0.003746         0.1019
  73   0.0000       0.007212         0.1962
  74   0.0000       0.018243         0.4964
  75   0.0000       0.019440         0.5290
  76   0.0000       0.028529         0.7763

E(0)                                       ...  -3028.424901415
E(0)                                       ...  -3028.424901415
E(CORR)(strong-pairs)                      ...     -2.874394976
E(CORR)(weak-pairs)                        ...     -0.035858543
E(CORR)(corrected)                         ...     -2.910253520
E(TOT)                                     ...  -3031.335154934
E(CCSD(T))                                 ...  -3031.454660662
FINAL SINGLE POINT ENERGY     -3031.454660662072

DIPOLE MOMENT
-------------
                                X             Y             Z
Electronic contribution:     41.33738       6.93047      -0.61542
Nuclear contribution   :    -46.77649      -7.15157       0.45042
                        -----------------------------------------
Total Dipole Moment    :     -5.43911      -0.22110      -0.16500
                        -----------------------------------------
Magnitude (a.u.)       :      5.44610
Magnitude (Debye)      :     13.84290

Rotational constants in cm-1:     0.019497     0.010795     0.010237
Rotational constants in MHz :   584.509408   323.632993   306.902144

                             ****ORCA TERMINATED NORMALLY****
TOTAL RUN TIME: 0 days 21 hours 15 minutes 19 seconds 432 msec
