                         Program Version 4.1.2  - RELEASE  -
|  1> ! aug-cc-pVTZ aug-cc-pVTZ/C DLPNO-CCSD(T1) TightSCF NormalPNO UNO MiniPrint AutoAux
|  2> %pal nproc 10 end
|  3> %maxcore 20000
|  4> %mdci
|  5>      density none
|  6> end
|  7>
|  8> * xyz 0 6
|  9>  O      0.21474200      0.32130600     -0.77878000
| 10>  C      1.07422800      1.23608100     -0.58879200
| 11>  C      2.83652100      0.30810400      0.65848300
| 12>  C      2.82582100     -0.84819700     -0.05974900
| 13>  C      3.62368200     -1.00699200     -1.31996300
| 14> Fe     -1.50560200     -0.17523900     -0.03493800
| 15> Cl     -1.98909300     -2.04308800     -1.05317200
| 16>  C      1.94923000     -2.00732000      0.29401400
| 17> Cl     -2.74604700      1.55579300     -0.54374300
| 18> Cl     -1.25983800     -0.42444900      2.13604000
| 19>  H      3.53479600      1.07832900      0.33316500
| 20>  H      2.47770600     -2.95770400      0.15812800
| 21>  H      1.55215000     -1.96223600      1.30840200
| 22>  H      1.09316200     -2.02339700     -0.39837200
| 23>  H      4.33974200     -1.82991100     -1.19431400
| 24>  H      2.97968800     -1.28806700     -2.16414000
| 25>  H      4.18646100     -0.10728200     -1.57997300
| 26>  C      2.38402900      0.40870000      2.09844700
| 27>  H      3.06926900     -0.16246700      2.73752300
| 28>  H      2.40788800      1.44221200      2.45051100
| 29>  H      1.37809900      0.01857600      2.26501300
| 30>  C      0.79157700      2.29464400      0.44354800
| 31>  H      1.66670200      2.90354200      0.67441500
| 32>  H      0.02702800      2.94069600     -0.01189900
| 33>  H      0.36100700      1.87722000      1.35327000
| 34>  C      1.87467500      1.65259500     -1.79627600
| 35>  H      1.23024600      2.34456300     -2.35636400
| 36>  H      2.79228500      2.18212600     -1.53617300
| 37>  H      2.08753300      0.80352500     -2.44395600
| 38> *
| 39>
| 40>
| 41>                          ****END OF INPUT****

CARTESIAN COORDINATES (ANGSTROEM)
---------------------------------
  O      0.214742    0.321306   -0.778780
  C      1.074228    1.236081   -0.588792
  C      2.836521    0.308104    0.658483
  C      2.825821   -0.848197   -0.059749
  C      3.623682   -1.006992   -1.319963
  Fe    -1.505602   -0.175239   -0.034938
  Cl    -1.989093   -2.043088   -1.053172
  C      1.949230   -2.007320    0.294014
  Cl    -2.746047    1.555793   -0.543743
  Cl    -1.259838   -0.424449    2.136040
  H      3.534796    1.078329    0.333165
  H      2.477706   -2.957704    0.158128
  H      1.552150   -1.962236    1.308402
  H      1.093162   -2.023397   -0.398372
  H      4.339742   -1.829911   -1.194314
  H      2.979688   -1.288067   -2.164140
  H      4.186461   -0.107282   -1.579973
  C      2.384029    0.408700    2.098447
  H      3.069269   -0.162467    2.737523
  H      2.407888    1.442212    2.450511
  H      1.378099    0.018576    2.265013
  C      0.791577    2.294644    0.443548
  H      1.666702    2.903542    0.674415
  H      0.027028    2.940696   -0.011899
  H      0.361007    1.877220    1.353270
  C      1.874675    1.652595   -1.796276
  H      1.230246    2.344563   -2.356364
  H      2.792285    2.182126   -1.536173
  H      2.087533    0.803525   -2.443956

ORBITAL ENERGIES
----------------
                 SPIN UP ORBITALS
  NO   OCC          E(Eh)            E(eV)
   0   1.0000    -261.568238     -7117.6336
   1   1.0000    -104.789153     -2851.4578
   2   1.0000    -104.785497     -2851.3583
   3   1.0000    -104.783058     -2851.2920
   4   1.0000     -32.236026      -877.1869
   5   1.0000     -27.712395      -754.0926
   6   1.0000     -27.711441      -754.0666
   7   1.0000     -27.711243      -754.0613
   8   1.0000     -20.605020      -560.6911
   9   1.0000     -11.416969      -310.6715
  10   1.0000     -11.291242      -307.2503
  11   1.0000     -11.273006      -306.7541
  12   1.0000     -11.269009      -306.6453
  13   1.0000     -11.256309      -306.2997
  14   1.0000     -11.254573      -306.2525
  15   1.0000     -11.240383      -305.8664
  16   1.0000     -11.238495      -305.8150
  17   1.0000     -10.515860      -286.1511
  18   1.0000     -10.512168      -286.0506
  19   1.0000     -10.509679      -285.9829
  20   1.0000      -7.982701      -217.2203
  21   1.0000      -7.981920      -217.1991
  22   1.0000      -7.981895      -217.1984
  23   1.0000      -7.979025      -217.1203
  24   1.0000      -7.978271      -217.0998
  25   1.0000      -7.978216      -217.0983
  26   1.0000      -7.976490      -217.0513
  27   1.0000      -7.975808      -217.0328
  28   1.0000      -7.975737      -217.0308
  29   1.0000      -4.591104      -124.9303
  30   1.0000      -3.204227       -87.1915
  31   1.0000      -3.202612       -87.1475
  32   1.0000      -3.202420       -87.1423
  33   1.0000      -1.447412       -39.3861
  34   1.0000      -1.141462       -31.0608
  35   1.0000      -1.094254       -29.7762
  36   1.0000      -1.061420       -28.8827
  37   1.0000      -1.055561       -28.7233
  38   1.0000      -1.052113       -28.6294
  39   1.0000      -1.027089       -27.9485
  40   1.0000      -1.004602       -27.3366
  41   1.0000      -0.971314       -26.4308
  42   1.0000      -0.937068       -25.4989
  43   1.0000      -0.920230       -25.0407
  44   1.0000      -0.920064       -25.0362
  45   1.0000      -0.909947       -24.7609
  46   1.0000      -0.909122       -24.7385
  47   1.0000      -0.904612       -24.6157
  48   1.0000      -0.806760       -21.9531
  49   1.0000      -0.742710       -20.2102
  50   1.0000      -0.702163       -19.1068
  51   1.0000      -0.692689       -18.8490
  52   1.0000      -0.682059       -18.5598
  53   1.0000      -0.664617       -18.0851
  54   1.0000      -0.631521       -17.1846
  55   1.0000      -0.621929       -16.9236
  56   1.0000      -0.606039       -16.4912
  57   1.0000      -0.596676       -16.2364
  58   1.0000      -0.583466       -15.8769
  59   1.0000      -0.575797       -15.6682
  60   1.0000      -0.562925       -15.3180
  61   1.0000      -0.561455       -15.2780
  62   1.0000      -0.550481       -14.9794
  63   1.0000      -0.544351       -14.8126
  64   1.0000      -0.534581       -14.5467
  65   1.0000      -0.529509       -14.4087
  66   1.0000      -0.505358       -13.7515
  67   1.0000      -0.495535       -13.4842
  68   1.0000      -0.472842       -12.8667
  69   1.0000      -0.469633       -12.7794
  70   1.0000      -0.441440       -12.0122
  71   1.0000      -0.436037       -11.8652
  72   1.0000      -0.433631       -11.7997
  73   1.0000      -0.425537       -11.5795
  74   1.0000      -0.424068       -11.5395
  75   1.0000      -0.422634       -11.5005
  76   1.0000      -0.367602       -10.0030
  77   0.0000       0.011729         0.3192
  78   0.0000       0.022071         0.6006
  79   0.0000       0.023394         0.6366
  80   0.0000       0.029571         0.8047
  81   0.0000       0.038412         1.0452

                 SPIN DOWN ORBITALS
  NO   OCC          E(Eh)            E(eV)
   0   1.0000    -261.564663     -7117.5363
   1   1.0000    -104.787683     -2851.4178
   2   1.0000    -104.783968     -2851.3167
   3   1.0000    -104.781529     -2851.2504
   4   1.0000     -32.073994      -872.7777
   5   1.0000     -27.551913      -749.7257
   6   1.0000     -27.551856      -749.7241
   7   1.0000     -27.551688      -749.7195
   8   1.0000     -20.601181      -560.5866
   9   1.0000     -11.416851      -310.6683
  10   1.0000     -11.291088      -307.2461
  11   1.0000     -11.272898      -306.7511
  12   1.0000     -11.268994      -306.6449
  13   1.0000     -11.256330      -306.3003
  14   1.0000     -11.254652      -306.2546
  15   1.0000     -11.240413      -305.8672
  16   1.0000     -11.238485      -305.8147
  17   1.0000     -10.514288      -286.1083
  18   1.0000     -10.510535      -286.0062
  19   1.0000     -10.508052      -285.9386
  20   1.0000      -7.980187      -217.1519
  21   1.0000      -7.979505      -217.1334
  22   1.0000      -7.979456      -217.1320
  23   1.0000      -7.976444      -217.0501
  24   1.0000      -7.975734      -217.0308
  25   1.0000      -7.975648      -217.0284
  26   1.0000      -7.974024      -216.9842
  27   1.0000      -7.973203      -216.9619
  28   1.0000      -7.973111      -216.9594
  29   1.0000      -4.148903      -112.8974
  30   1.0000      -2.670528       -72.6687
  31   1.0000      -2.670458       -72.6669
  32   1.0000      -2.669964       -72.6534
  33   1.0000      -1.437816       -39.1250
  34   1.0000      -1.141005       -31.0483
  35   1.0000      -1.091545       -29.7025
  36   1.0000      -1.045971       -28.4623
  37   1.0000      -1.033738       -28.1294
  38   1.0000      -1.029969       -28.0269
  39   1.0000      -1.026436       -27.9308
  40   1.0000      -1.003968       -27.3193
  41   1.0000      -0.971249       -26.4290
  42   1.0000      -0.904921       -24.6242
  43   1.0000      -0.821442       -22.3526
  44   1.0000      -0.742807       -20.2128
  45   1.0000      -0.704799       -19.1786
  46   1.0000      -0.691587       -18.8190
  47   1.0000      -0.681454       -18.5433
  48   1.0000      -0.664520       -18.0825
  49   1.0000      -0.631496       -17.1839
  50   1.0000      -0.621451       -16.9105
  51   1.0000      -0.605605       -16.4794
  52   1.0000      -0.596538       -16.2326
  53   1.0000      -0.583163       -15.8687
  54   1.0000      -0.574152       -15.6235
  55   1.0000      -0.562776       -15.3139
  56   1.0000      -0.561359       -15.2753
  57   1.0000      -0.550353       -14.9759
  58   1.0000      -0.542514       -14.7625
  59   1.0000      -0.533373       -14.5138
  60   1.0000      -0.518794       -14.1171
  61   1.0000      -0.505264       -13.7489
  62   1.0000      -0.496595       -13.5130
  63   1.0000      -0.479928       -13.0595
  64   1.0000      -0.476841       -12.9755
  65   1.0000      -0.449819       -12.2402
  66   1.0000      -0.445676       -12.1275
  67   1.0000      -0.443204       -12.0602
  68   1.0000      -0.427781       -11.6405
  69   1.0000      -0.423248       -11.5172
  70   1.0000      -0.408709       -11.1215
  71   1.0000      -0.366474        -9.9723
  72   0.0000       0.011713         0.3187
  73   0.0000       0.022046         0.5999
  74   0.0000       0.023360         0.6357
  75   0.0000       0.029373         0.7993
  76   0.0000       0.037956         1.0328

E(0)                                       ...  -3028.450050780
E(0)                                       ...  -3028.450050780
E(CORR)(strong-pairs)                      ...     -2.870116239
E(CORR)(weak-pairs)                        ...     -0.036066216
E(CORR)(corrected)                         ...     -2.906182456
E(TOT)                                     ...  -3031.356233236
E(CCSD(T))                                 ...  -3031.475199396
FINAL SINGLE POINT ENERGY     -3031.475199396416

DIPOLE MOMENT
-------------
                                X             Y             Z
Electronic contribution:    -43.86152      -5.76321       0.52018
Nuclear contribution   :     47.71818       6.97562      -1.01621
                        -----------------------------------------
Total Dipole Moment    :      3.85666       1.21241      -0.49603
                        -----------------------------------------
Magnitude (a.u.)       :      4.07306
Magnitude (Debye)      :     10.35290

Rotational constants in cm-1:     0.019168     0.010502     0.009917
Rotational constants in MHz :   574.654062   314.852788   297.311629

                             ****ORCA TERMINATED NORMALLY****
TOTAL RUN TIME: 0 days 18 hours 24 minutes 58 seconds 897 msec
