                         Program Version 4.1.2  - RELEASE  -
|  1> ! aug-cc-pVTZ aug-cc-pVTZ/C DLPNO-CCSD(T1) TightSCF NormalPNO UNO MiniPrint AutoAux
|  2> %pal nproc 10 end
|  3> %maxcore 20000
|  4> %mdci
|  5>      density none
|  6> end
|  7>
|  8> * xyz 0 6
|  9>  O     -0.40648700     -0.19202400     -0.54658100
| 10>  C     -1.47746500     -1.16332800     -0.32579600
| 11>  C     -2.71224600     -0.14670900     -0.28332800
| 12>  C     -1.92000500      1.15770400     -0.24652000
| 13>  C     -1.82558500      1.98490100     -1.47370200
| 14> Fe      1.37967500      0.02623400      0.02009900
| 15> Cl      1.85667100      1.99670400     -0.86354700
| 16>  C     -1.58094200      1.80210200      1.04587900
| 17> Cl      2.46306800     -1.72164900     -0.73487200
| 18> Cl      1.38527500      0.15719700      2.22801900
| 19>  H     -3.22650300     -0.19967900     -1.24837300
| 20>  H     -2.45786400      2.39951400      1.34349100
| 21>  H     -1.37620700      1.08510700      1.84054300
| 22>  H     -0.73125000      2.48032400      0.93878300
| 23>  H     -2.64068600      2.72605800     -1.43379200
| 24>  H     -0.87650900      2.52775000     -1.50324400
| 25>  H     -1.94503700      1.38853300     -2.37924500
| 26>  C     -3.74070800     -0.33018400      0.83098700
| 27>  H     -4.52141800      0.43651000      0.77384800
| 28>  H     -4.22864300     -1.30380300      0.72370100
| 29>  H     -3.29326600     -0.28873900      1.82674300
| 30>  C     -1.24375400     -1.93544700      0.96446900
| 31>  H     -2.06329900     -2.63713200      1.15058300
| 32>  H     -0.31804000     -2.51287100      0.87202400
| 33>  H     -1.13512500     -1.27735200      1.82861400
| 34>  C     -1.52991600     -2.09252000     -1.52860200
| 35>  H     -0.59311300     -2.65444700     -1.59789000
| 36>  H     -2.35984800     -2.80279300     -1.43638900
| 37>  H     -1.65435400     -1.52025900     -2.45284900
| 38> *
| 39>
| 40>
| 41>                          ****END OF INPUT****

CARTESIAN COORDINATES (ANGSTROEM)
---------------------------------
  O     -0.406487   -0.192024   -0.546581
  C     -1.477465   -1.163328   -0.325796
  C     -2.712246   -0.146709   -0.283328
  C     -1.920005    1.157704   -0.246520
  C     -1.825585    1.984901   -1.473702
  Fe     1.379675    0.026234    0.020099
  Cl     1.856671    1.996704   -0.863547
  C     -1.580942    1.802102    1.045879
  Cl     2.463068   -1.721649   -0.734872
  Cl     1.385275    0.157197    2.228019
  H     -3.226503   -0.199679   -1.248373
  H     -2.457864    2.399514    1.343491
  H     -1.376207    1.085107    1.840543
  H     -0.731250    2.480324    0.938783
  H     -2.640686    2.726058   -1.433792
  H     -0.876509    2.527750   -1.503244
  H     -1.945037    1.388533   -2.379245
  C     -3.740708   -0.330184    0.830987
  H     -4.521418    0.436510    0.773848
  H     -4.228643   -1.303803    0.723701
  H     -3.293266   -0.288739    1.826743
  C     -1.243754   -1.935447    0.964469
  H     -2.063299   -2.637132    1.150583
  H     -0.318040   -2.512871    0.872024
  H     -1.135125   -1.277352    1.828614
  C     -1.529916   -2.092520   -1.528602
  H     -0.593113   -2.654447   -1.597890
  H     -2.359848   -2.802793   -1.436389
  H     -1.654354   -1.520259   -2.452849

ORBITAL ENERGIES
----------------
                 SPIN UP ORBITALS
  NO   OCC          E(Eh)            E(eV)
   0   1.0000    -261.549197     -7117.1155
   1   1.0000    -104.777035     -2851.1281
   2   1.0000    -104.775469     -2851.0855
   3   1.0000    -104.773005     -2851.0184
   4   1.0000     -32.217126      -876.6726
   5   1.0000     -27.693063      -753.5666
   6   1.0000     -27.692836      -753.5604
   7   1.0000     -27.692503      -753.5513
   8   1.0000     -20.562579      -559.5362
   9   1.0000     -11.405331      -310.3548
  10   1.0000     -11.330732      -308.3249
  11   1.0000     -11.292245      -307.2776
  12   1.0000     -11.279000      -306.9172
  13   1.0000     -11.278615      -306.9067
  14   1.0000     -11.265197      -306.5416
  15   1.0000     -11.235393      -305.7306
  16   1.0000     -11.234916      -305.7176
  17   1.0000     -10.503652      -285.8189
  18   1.0000     -10.502188      -285.7791
  19   1.0000     -10.499642      -285.7098
  20   1.0000      -7.970483      -216.8879
  21   1.0000      -7.969740      -216.8677
  22   1.0000      -7.969656      -216.8654
  23   1.0000      -7.969068      -216.8494
  24   1.0000      -7.968229      -216.8265
  25   1.0000      -7.968209      -216.8260
  26   1.0000      -7.966444      -216.7780
  27   1.0000      -7.965766      -216.7595
  28   1.0000      -7.965685      -216.7573
  29   1.0000      -4.572491      -124.4238
  30   1.0000      -3.184864       -86.6645
  31   1.0000      -3.184675       -86.6594
  32   1.0000      -3.184079       -86.6432
  33   1.0000      -1.355510       -36.8853
  34   1.0000      -1.169927       -31.8353
  35   1.0000      -1.096475       -29.8366
  36   1.0000      -1.048572       -28.5331
  37   1.0000      -1.043263       -28.3886
  38   1.0000      -1.040775       -28.3209
  39   1.0000      -1.034361       -28.1464
  40   1.0000      -1.013632       -27.5823
  41   1.0000      -0.964024       -26.2324
  42   1.0000      -0.935370       -25.4527
  43   1.0000      -0.902858       -24.5680
  44   1.0000      -0.901765       -24.5383
  45   1.0000      -0.900818       -24.5125
  46   1.0000      -0.893487       -24.3130
  47   1.0000      -0.892889       -24.2967
  48   1.0000      -0.805136       -21.9089
  49   1.0000      -0.757653       -20.6168
  50   1.0000      -0.699472       -19.0336
  51   1.0000      -0.689621       -18.7655
  52   1.0000      -0.670975       -18.2582
  53   1.0000      -0.635078       -17.2814
  54   1.0000      -0.634015       -17.2524
  55   1.0000      -0.618581       -16.8324
  56   1.0000      -0.603503       -16.4222
  57   1.0000      -0.594458       -16.1760
  58   1.0000      -0.592477       -16.1221
  59   1.0000      -0.583461       -15.8768
  60   1.0000      -0.573658       -15.6100
  61   1.0000      -0.559389       -15.2218
  62   1.0000      -0.543249       -14.7826
  63   1.0000      -0.535686       -14.5768
  64   1.0000      -0.527790       -14.3619
  65   1.0000      -0.517420       -14.0797
  66   1.0000      -0.504068       -13.7164
  67   1.0000      -0.474757       -12.9188
  68   1.0000      -0.469720       -12.7817
  69   1.0000      -0.453760       -12.3474
  70   1.0000      -0.445251       -12.1159
  71   1.0000      -0.427974       -11.6458
  72   1.0000      -0.423701       -11.5295
  73   1.0000      -0.419796       -11.4232
  74   1.0000      -0.415987       -11.3196
  75   1.0000      -0.413953       -11.2642
  76   1.0000      -0.412735       -11.2311
  77   0.0000       0.007105         0.1933
  78   0.0000       0.019789         0.5385
  79   0.0000       0.022024         0.5993
  80   0.0000       0.030561         0.8316
  81   0.0000       0.037195         1.0121

                 SPIN DOWN ORBITALS
  NO   OCC          E(Eh)            E(eV)
   0   1.0000    -261.545646     -7117.0188
   1   1.0000    -104.775695     -2851.0916
   2   1.0000    -104.774074     -2851.0475
   3   1.0000    -104.771539     -2850.9785
   4   1.0000     -32.055136      -872.2646
   5   1.0000     -27.533194      -749.2163
   6   1.0000     -27.533005      -749.2111
   7   1.0000     -27.532586      -749.1998
   8   1.0000     -20.557094      -559.3870
   9   1.0000     -11.405387      -310.3564
  10   1.0000     -11.330532      -308.3194
  11   1.0000     -11.292158      -307.2752
  12   1.0000     -11.278980      -306.9167
  13   1.0000     -11.278621      -306.9069
  14   1.0000     -11.265181      -306.5412
  15   1.0000     -11.235359      -305.7297
  16   1.0000     -11.234904      -305.7173
  17   1.0000     -10.502212      -285.7797
  18   1.0000     -10.500689      -285.7383
  19   1.0000     -10.498075      -285.6671
  20   1.0000      -7.968163      -216.8247
  21   1.0000      -7.967542      -216.8078
  22   1.0000      -7.967472      -216.8059
  23   1.0000      -7.966586      -216.7818
  24   1.0000      -7.966000      -216.7659
  25   1.0000      -7.965948      -216.7645
  26   1.0000      -7.964055      -216.7130
  27   1.0000      -7.963270      -216.6916
  28   1.0000      -7.963216      -216.6901
  29   1.0000      -4.130412      -112.3942
  30   1.0000      -2.652316       -72.1732
  31   1.0000      -2.652280       -72.1722
  32   1.0000      -2.651169       -72.1420
  33   1.0000      -1.341498       -36.5040
  34   1.0000      -1.167901       -31.7802
  35   1.0000      -1.094070       -29.7712
  36   1.0000      -1.034072       -28.1385
  37   1.0000      -1.032978       -28.1088
  38   1.0000      -1.023408       -27.8484
  39   1.0000      -1.020253       -27.7625
  40   1.0000      -1.013032       -27.5660
  41   1.0000      -0.963247       -26.2113
  42   1.0000      -0.930005       -25.3067
  43   1.0000      -0.807071       -21.9615
  44   1.0000      -0.761415       -20.7192
  45   1.0000      -0.699546       -19.0356
  46   1.0000      -0.689427       -18.7603
  47   1.0000      -0.672138       -18.2898
  48   1.0000      -0.635793       -17.3008
  49   1.0000      -0.634081       -17.2542
  50   1.0000      -0.617221       -16.7954
  51   1.0000      -0.603555       -16.4236
  52   1.0000      -0.593337       -16.1455
  53   1.0000      -0.592370       -16.1192
  54   1.0000      -0.582191       -15.8422
  55   1.0000      -0.573246       -15.5988
  56   1.0000      -0.558767       -15.2048
  57   1.0000      -0.538566       -14.6551
  58   1.0000      -0.535279       -14.5657
  59   1.0000      -0.525356       -14.2957
  60   1.0000      -0.512744       -13.9525
  61   1.0000      -0.502692       -13.6789
  62   1.0000      -0.472020       -12.8443
  63   1.0000      -0.468767       -12.7558
  64   1.0000      -0.461465       -12.5571
  65   1.0000      -0.452532       -12.3140
  66   1.0000      -0.438728       -11.9384
  67   1.0000      -0.434575       -11.8254
  68   1.0000      -0.433251       -11.7893
  69   1.0000      -0.414091       -11.2680
  70   1.0000      -0.408348       -11.1117
  71   1.0000      -0.400202       -10.8900
  72   0.0000       0.007082         0.1927
  73   0.0000       0.019676         0.5354
  74   0.0000       0.022003         0.5987
  75   0.0000       0.030594         0.8325
  76   0.0000       0.037179         1.0117

E(0)                                       ...  -3028.444819524
E(0)                                       ...  -3028.444819524
E(CORR)(strong-pairs)                      ...     -2.873587045
E(CORR)(weak-pairs)                        ...     -0.034808010
E(CORR)(corrected)                         ...     -2.908395055
E(TOT)                                     ...  -3031.353214579
E(CCSD(T))                                 ...  -3031.471781725
FINAL SINGLE POINT ENERGY     -3031.471781725030

DIPOLE MOMENT
-------------
                                X             Y             Z
Electronic contribution:     40.48039       3.38877       1.37069
Nuclear contribution   :    -45.15884      -2.77023      -1.67626
                        -----------------------------------------
Total Dipole Moment    :     -4.67844       0.61854      -0.30557
                        -----------------------------------------
Magnitude (a.u.)       :      4.72904
Magnitude (Debye)      :     12.02026

Rotational constants in cm-1:     0.019076     0.012044     0.010708
Rotational constants in MHz :   571.881143   361.074919   321.014642

                             ****ORCA TERMINATED NORMALLY****
TOTAL RUN TIME: 0 days 18 hours 52 minutes 5 seconds 282 msec
