                         Program Version 4.1.2  - RELEASE  -
|  1> ! aug-cc-pVTZ aug-cc-pVTZ/C DLPNO-CCSD(T1) TightSCF NormalPNO UNO MiniPrint AutoAux
|  2> %pal nproc 10 end
|  3> %maxcore 20000
|  4> %mdci
|  5>      density none
|  6> end
|  7>
|  8> * xyz 0 6
|  9>  O     -0.27364200     -0.24689600     -0.77702800
| 10>  C     -1.08505900     -1.20141300     -0.63827400
| 11>  C     -3.14964000     -0.03459300      0.29902600
| 12>  C     -2.47107400      1.01967600     -0.20511500
| 13>  C     -2.63841700      1.45628000     -1.63236600
| 14> Fe      1.46611600      0.11458700      0.04356200
| 15> Cl      2.10596800      1.98664000     -0.86806100
| 16>  C     -1.58433400      1.91069500      0.61255100
| 17> Cl      2.57442500     -1.67768100     -0.56001300
| 18> Cl      1.21594200      0.21538100      2.22396500
| 19>  H     -3.83961500     -0.54904000     -0.36890400
| 20>  H     -2.12811100      2.83671700      0.84616500
| 21>  H     -1.25955800      1.46808500      1.55400100
| 22>  H     -0.69764700      2.20921000      0.04339200
| 23>  H     -2.96874700      2.50260900     -1.65922700
| 24>  H     -1.67720400      1.42070200     -2.16030300
| 25>  H     -3.37565900      0.85723500     -2.17392100
| 26>  C     -3.26404500     -0.40858000      1.75236100
| 27>  H     -4.14777100      0.07328100      2.19242200
| 28>  H     -3.39770500     -1.48697300      1.88449600
| 29>  H     -2.39845300     -0.09889100      2.34331300
| 30>  C     -0.97667000     -2.12393600      0.53608000
| 31>  H     -1.86591100     -2.74201800      0.66091100
| 32>  H     -0.12288300     -2.78346100      0.31798700
| 33>  H     -0.74256500     -1.58693000      1.45543100
| 34>  C     -1.79136000     -1.70017500     -1.86466300
| 35>  H     -1.09969800     -2.41944300     -2.32819400
| 36>  H     -2.71721100     -2.22658400     -1.62952700
| 37>  H     -1.96526200     -0.90007400     -2.58218900
| 38> *
| 39>
| 40>
| 41>                          ****END OF INPUT****

CARTESIAN COORDINATES (ANGSTROEM)
---------------------------------
  O     -0.273642   -0.246896   -0.777028
  C     -1.085059   -1.201413   -0.638274
  C     -3.149640   -0.034593    0.299026
  C     -2.471074    1.019676   -0.205115
  C     -2.638417    1.456280   -1.632366
  Fe     1.466116    0.114587    0.043562
  Cl     2.105968    1.986640   -0.868061
  C     -1.584334    1.910695    0.612551
  Cl     2.574425   -1.677681   -0.560013
  Cl     1.215942    0.215381    2.223965
  H     -3.839615   -0.549040   -0.368904
  H     -2.128111    2.836717    0.846165
  H     -1.259558    1.468085    1.554001
  H     -0.697647    2.209210    0.043392
  H     -2.968747    2.502609   -1.659227
  H     -1.677204    1.420702   -2.160303
  H     -3.375659    0.857235   -2.173921
  C     -3.264045   -0.408580    1.752361
  H     -4.147771    0.073281    2.192422
  H     -3.397705   -1.486973    1.884496
  H     -2.398453   -0.098891    2.343313
  C     -0.976670   -2.123936    0.536080
  H     -1.865911   -2.742018    0.660911
  H     -0.122883   -2.783461    0.317987
  H     -0.742565   -1.586930    1.455431
  C     -1.791360   -1.700175   -1.864663
  H     -1.099698   -2.419443   -2.328194
  H     -2.717211   -2.226584   -1.629527
  H     -1.965262   -0.900074   -2.582189

ORBITAL ENERGIES
----------------
                 SPIN UP ORBITALS
  NO   OCC          E(Eh)            E(eV)
   0   1.0000    -261.574114     -7117.7935
   1   1.0000    -104.792020     -2851.5358
   2   1.0000    -104.789442     -2851.4657
   3   1.0000    -104.788071     -2851.4284
   4   1.0000     -32.241825      -877.3447
   5   1.0000     -27.718264      -754.2523
   6   1.0000     -27.717189      -754.2231
   7   1.0000     -27.717022      -754.2185
   8   1.0000     -20.611309      -560.8622
   9   1.0000     -11.421851      -310.8044
  10   1.0000     -11.276604      -306.8520
  11   1.0000     -11.274596      -306.7973
  12   1.0000     -11.270742      -306.6925
  13   1.0000     -11.246267      -306.0265
  14   1.0000     -11.243036      -305.9386
  15   1.0000     -11.242544      -305.9252
  16   1.0000     -11.232581      -305.6541
  17   1.0000     -10.518722      -286.2290
  18   1.0000     -10.516109      -286.1579
  19   1.0000     -10.514687      -286.1192
  20   1.0000      -7.985558      -217.2981
  21   1.0000      -7.984800      -217.2774
  22   1.0000      -7.984750      -217.2761
  23   1.0000      -7.982999      -217.2284
  24   1.0000      -7.982202      -217.2068
  25   1.0000      -7.982132      -217.2049
  26   1.0000      -7.981476      -217.1870
  27   1.0000      -7.980811      -217.1689
  28   1.0000      -7.980760      -217.1675
  29   1.0000      -4.596744      -125.0838
  30   1.0000      -3.209860       -87.3447
  31   1.0000      -3.208187       -87.2992
  32   1.0000      -3.208029       -87.2949
  33   1.0000      -1.459479       -39.7144
  34   1.0000      -1.131542       -30.7908
  35   1.0000      -1.100177       -29.9373
  36   1.0000      -1.065165       -28.9846
  37   1.0000      -1.059582       -28.8327
  38   1.0000      -1.057156       -28.7667
  39   1.0000      -1.023615       -27.8540
  40   1.0000      -1.010332       -27.4925
  41   1.0000      -0.961779       -26.1713
  42   1.0000      -0.941270       -25.6133
  43   1.0000      -0.925738       -25.1906
  44   1.0000      -0.925619       -25.1874
  45   1.0000      -0.914931       -24.8965
  46   1.0000      -0.914579       -24.8870
  47   1.0000      -0.900674       -24.5086
  48   1.0000      -0.811142       -22.0723
  49   1.0000      -0.733018       -19.9464
  50   1.0000      -0.709600       -19.3092
  51   1.0000      -0.700919       -19.0730
  52   1.0000      -0.688142       -18.7253
  53   1.0000      -0.658401       -17.9160
  54   1.0000      -0.624933       -17.0053
  55   1.0000      -0.621310       -16.9067
  56   1.0000      -0.603414       -16.4197
  57   1.0000      -0.600396       -16.3376
  58   1.0000      -0.585294       -15.9267
  59   1.0000      -0.578938       -15.7537
  60   1.0000      -0.560411       -15.2496
  61   1.0000      -0.554963       -15.1013
  62   1.0000      -0.552349       -15.0302
  63   1.0000      -0.541572       -14.7369
  64   1.0000      -0.533984       -14.5304
  65   1.0000      -0.528354       -14.3772
  66   1.0000      -0.500974       -13.6322
  67   1.0000      -0.496721       -13.5165
  68   1.0000      -0.476260       -12.9597
  69   1.0000      -0.474103       -12.9010
  70   1.0000      -0.445333       -12.1181
  71   1.0000      -0.439285       -11.9536
  72   1.0000      -0.437790       -11.9129
  73   1.0000      -0.429146       -11.6777
  74   1.0000      -0.427788       -11.6407
  75   1.0000      -0.427162       -11.6237
  76   1.0000      -0.361182        -9.8283
  77   0.0000       0.012731         0.3464
  78   0.0000       0.023543         0.6406
  79   0.0000       0.024060         0.6547
  80   0.0000       0.030527         0.8307
  81   0.0000       0.039370         1.0713

                 SPIN DOWN ORBITALS
  NO   OCC          E(Eh)            E(eV)
   0   1.0000    -261.570540     -7117.6963
   1   1.0000    -104.790536     -2851.4955
   2   1.0000    -104.787905     -2851.4239
   3   1.0000    -104.786532     -2851.3865
   4   1.0000     -32.079829      -872.9365
   5   1.0000     -27.557754      -749.8846
   6   1.0000     -27.557682      -749.8826
   7   1.0000     -27.557541      -749.8788
   8   1.0000     -20.607727      -560.7648
   9   1.0000     -11.421730      -310.8011
  10   1.0000     -11.276499      -306.8491
  11   1.0000     -11.274645      -306.7987
  12   1.0000     -11.270737      -306.6924
  13   1.0000     -11.246151      -306.0233
  14   1.0000     -11.243027      -305.9383
  15   1.0000     -11.242556      -305.9255
  16   1.0000     -11.232593      -305.6544
  17   1.0000     -10.517136      -286.1858
  18   1.0000     -10.514468      -286.1132
  19   1.0000     -10.513052      -286.0747
  20   1.0000      -7.983052      -217.2299
  21   1.0000      -7.982331      -217.2103
  22   1.0000      -7.982282      -217.2089
  23   1.0000      -7.980337      -217.1560
  24   1.0000      -7.979687      -217.1383
  25   1.0000      -7.979589      -217.1357
  26   1.0000      -7.979043      -217.1208
  27   1.0000      -7.978166      -217.0969
  28   1.0000      -7.978086      -217.0947
  29   1.0000      -4.154612      -113.0527
  30   1.0000      -2.676172       -72.8223
  31   1.0000      -2.676130       -72.8212
  32   1.0000      -2.675679       -72.8089
  33   1.0000      -1.450572       -39.4721
  34   1.0000      -1.131185       -30.7811
  35   1.0000      -1.097798       -29.8726
  36   1.0000      -1.049700       -28.5638
  37   1.0000      -1.037230       -28.2245
  38   1.0000      -1.034786       -28.1580
  39   1.0000      -1.023088       -27.8397
  40   1.0000      -1.009649       -27.4740
  41   1.0000      -0.961630       -26.1673
  42   1.0000      -0.900909       -24.5150
  43   1.0000      -0.823999       -22.4221
  44   1.0000      -0.733075       -19.9480
  45   1.0000      -0.711952       -19.3732
  46   1.0000      -0.700097       -19.0506
  47   1.0000      -0.687317       -18.7029
  48   1.0000      -0.658338       -17.9143
  49   1.0000      -0.624814       -17.0020
  50   1.0000      -0.620830       -16.8936
  51   1.0000      -0.603158       -16.4128
  52   1.0000      -0.600357       -16.3365
  53   1.0000      -0.585004       -15.9188
  54   1.0000      -0.578178       -15.7330
  55   1.0000      -0.559567       -15.2266
  56   1.0000      -0.554765       -15.0959
  57   1.0000      -0.550117       -14.9695
  58   1.0000      -0.541589       -14.7374
  59   1.0000      -0.530270       -14.4294
  60   1.0000      -0.520899       -14.1744
  61   1.0000      -0.501954       -13.6589
  62   1.0000      -0.496551       -13.5118
  63   1.0000      -0.483615       -13.1598
  64   1.0000      -0.481741       -13.1088
  65   1.0000      -0.452591       -12.3156
  66   1.0000      -0.449531       -12.2324
  67   1.0000      -0.446830       -12.1589
  68   1.0000      -0.430591       -11.7170
  69   1.0000      -0.428254       -11.6534
  70   1.0000      -0.412377       -11.2213
  71   1.0000      -0.360371        -9.8062
  72   0.0000       0.012717         0.3460
  73   0.0000       0.023518         0.6399
  74   0.0000       0.024032         0.6540
  75   0.0000       0.030481         0.8294
  76   0.0000       0.039263         1.0684

E(0)                                       ...  -3028.455361845
E(0)                                       ...  -3028.455361845
E(CORR)(strong-pairs)                      ...     -2.869173267
E(CORR)(weak-pairs)                        ...     -0.036137155
E(CORR)(corrected)                         ...     -2.905310422
E(TOT)                                     ...  -3031.360672267
E(CCSD(T))                                 ...  -3031.479052542
FINAL SINGLE POINT ENERGY     -3031.479052542491

DIPOLE MOMENT
-------------
                                X             Y             Z
Electronic contribution:     43.21747       3.28067       2.18361
Nuclear contribution   :    -46.68620      -4.44961      -2.81516
                        -----------------------------------------
Total Dipole Moment    :     -3.46874      -1.16894      -0.63155
                        -----------------------------------------
Magnitude (a.u.)       :      3.71449
Magnitude (Debye)      :      9.44147

Rotational constants in cm-1:     0.019058     0.010894     0.010267
Rotational constants in MHz :   571.334424   326.593302   307.794960

                             ****ORCA TERMINATED NORMALLY****
TOTAL RUN TIME: 0 days 17 hours 49 minutes 40 seconds 512 msec
