                         Program Version 4.1.2  - RELEASE  -
|  1> ! aug-cc-pVTZ aug-cc-pVTZ/C DLPNO-CCSD(T1) TightSCF NormalPNO UNO MiniPrint AutoAux
|  2> %pal nproc 10 end
|  3> %maxcore 20000
|  4> %mdci
|  5>      density none
|  6> end
|  7>
|  8> * xyz 0 6
|  9>  O     -0.35002800     -0.13756900     -0.53808200
| 10>  C     -1.22819300     -1.11839300     -0.39085000
| 11>  C     -2.62037000     -0.41751500      0.60570200
| 12>  C     -2.72417900      0.81082700     -0.06486400
| 13>  C     -3.58128800      0.96622200     -1.27213800
| 14> Fe      1.44204500      0.16117800     -0.05918100
| 15> Cl      1.77644500      2.19708200     -0.83707200
| 16>  C     -1.93641300      1.98457300      0.33570800
| 17> Cl      2.61725200     -1.44795800     -0.98586600
| 18> Cl      1.52185000      0.11815600      2.15648300
| 19>  H     -3.40877100     -1.12570700      0.34796900
| 20>  H     -2.32922000      2.91772400     -0.07400200
| 21>  H     -1.77792900      2.06243000      1.41269100
| 22>  H     -0.93650300      1.81882900     -0.11133300
| 23>  H     -4.35377100      1.71372300     -1.04129000
| 24>  H     -3.00006400      1.38069000     -2.10635500
| 25>  H     -4.07295100      0.04310900     -1.57978000
| 26>  C     -2.23463400     -0.41517900      2.07990200
| 27>  H     -2.93635000      0.20726700      2.64632100
| 28>  H     -2.28523000     -1.42456300      2.49112200
| 29>  H     -1.22455700     -0.03292700      2.24408800
| 30>  C     -0.76269100     -2.29586100      0.46524700
| 31>  H     -1.56941200     -3.00759600      0.66091300
| 32>  H      0.01706800     -2.80194500     -0.11629200
| 33>  H     -0.31360100     -1.97068200      1.40295200
| 34>  C     -1.80181100     -1.59035700     -1.72543400
| 35>  H     -1.01045700     -2.16634700     -2.21723600
| 36>  H     -2.67434100     -2.23924300     -1.60463600
| 37>  H     -2.04368900     -0.75450000     -2.38167200
| 38> *
| 39>
| 40>
| 41>                          ****END OF INPUT****

CARTESIAN COORDINATES (ANGSTROEM)
---------------------------------
  O     -0.350028   -0.137569   -0.538082
  C     -1.228193   -1.118393   -0.390850
  C     -2.620370   -0.417515    0.605702
  C     -2.724179    0.810827   -0.064864
  C     -3.581288    0.966222   -1.272138
  Fe     1.442045    0.161178   -0.059181
  Cl     1.776445    2.197082   -0.837072
  C     -1.936413    1.984573    0.335708
  Cl     2.617252   -1.447958   -0.985866
  Cl     1.521850    0.118156    2.156483
  H     -3.408771   -1.125707    0.347969
  H     -2.329220    2.917724   -0.074002
  H     -1.777929    2.062430    1.412691
  H     -0.936503    1.818829   -0.111333
  H     -4.353771    1.713723   -1.041290
  H     -3.000064    1.380690   -2.106355
  H     -4.072951    0.043109   -1.579780
  C     -2.234634   -0.415179    2.079902
  H     -2.936350    0.207267    2.646321
  H     -2.285230   -1.424563    2.491122
  H     -1.224557   -0.032927    2.244088
  C     -0.762691   -2.295861    0.465247
  H     -1.569412   -3.007596    0.660913
  H      0.017068   -2.801945   -0.116292
  H     -0.313601   -1.970682    1.402952
  C     -1.801811   -1.590357   -1.725434
  H     -1.010457   -2.166347   -2.217236
  H     -2.674341   -2.239243   -1.604636
  H     -2.043689   -0.754500   -2.381672

ORBITAL ENERGIES
----------------
                 SPIN UP ORBITALS
  NO   OCC          E(Eh)            E(eV)
   0   1.0000    -261.547081     -7117.0579
   1   1.0000    -104.773890     -2851.0425
   2   1.0000    -104.771931     -2850.9892
   3   1.0000    -104.770975     -2850.9632
   4   1.0000     -32.215004      -876.6148
   5   1.0000     -27.690935      -753.5086
   6   1.0000     -27.690695      -753.5021
   7   1.0000     -27.690436      -753.4951
   8   1.0000     -20.547785      -559.1337
   9   1.0000     -11.375233      -309.5358
  10   1.0000     -11.371154      -309.4248
  11   1.0000     -11.292438      -307.2829
  12   1.0000     -11.283323      -307.0348
  13   1.0000     -11.266631      -306.5806
  14   1.0000     -11.251517      -306.1693
  15   1.0000     -11.250194      -306.1333
  16   1.0000     -11.242389      -305.9210
  17   1.0000     -10.500496      -285.7330
  18   1.0000     -10.498486      -285.6783
  19   1.0000     -10.497584      -285.6538
  20   1.0000      -7.967379      -216.8034
  21   1.0000      -7.966539      -216.7805
  22   1.0000      -7.966485      -216.7791
  23   1.0000      -7.965314      -216.7472
  24   1.0000      -7.964583      -216.7273
  25   1.0000      -7.964494      -216.7249
  26   1.0000      -7.964405      -216.7225
  27   1.0000      -7.963688      -216.7030
  28   1.0000      -7.963614      -216.7010
  29   1.0000      -4.570422      -124.3675
  30   1.0000      -3.182973       -86.6131
  31   1.0000      -3.182523       -86.6009
  32   1.0000      -3.181991       -86.5864
  33   1.0000      -1.388824       -37.7918
  34   1.0000      -1.188188       -32.3322
  35   1.0000      -1.083031       -29.4708
  36   1.0000      -1.045579       -28.4516
  37   1.0000      -1.044659       -28.4266
  38   1.0000      -1.039539       -28.2873
  39   1.0000      -1.037729       -28.2380
  40   1.0000      -1.009335       -27.4654
  41   1.0000      -0.975583       -26.5470
  42   1.0000      -0.931642       -25.3513
  43   1.0000      -0.912517       -24.8308
  44   1.0000      -0.899911       -24.4878
  45   1.0000      -0.899851       -24.4862
  46   1.0000      -0.891229       -24.2516
  47   1.0000      -0.890819       -24.2404
  48   1.0000      -0.789817       -21.4920
  49   1.0000      -0.768830       -20.9209
  50   1.0000      -0.704226       -19.1630
  51   1.0000      -0.693630       -18.8746
  52   1.0000      -0.671239       -18.2653
  53   1.0000      -0.656158       -17.8550
  54   1.0000      -0.649940       -17.6858
  55   1.0000      -0.629001       -17.1160
  56   1.0000      -0.600723       -16.3465
  57   1.0000      -0.598071       -16.2743
  58   1.0000      -0.593708       -16.1556
  59   1.0000      -0.580346       -15.7920
  60   1.0000      -0.574652       -15.6371
  61   1.0000      -0.562852       -15.3160
  62   1.0000      -0.557312       -15.1652
  63   1.0000      -0.541389       -14.7320
  64   1.0000      -0.531820       -14.4716
  65   1.0000      -0.523150       -14.2356
  66   1.0000      -0.508871       -13.8471
  67   1.0000      -0.470613       -12.8060
  68   1.0000      -0.460918       -12.5422
  69   1.0000      -0.447792       -12.1850
  70   1.0000      -0.426514       -11.6060
  71   1.0000      -0.424078       -11.5397
  72   1.0000      -0.420453       -11.4411
  73   1.0000      -0.412755       -11.2316
  74   1.0000      -0.410817       -11.1789
  75   1.0000      -0.410477       -11.1696
  76   1.0000      -0.399325       -10.8662
  77   0.0000       0.005409         0.1472
  78   0.0000       0.011552         0.3144
  79   0.0000       0.018896         0.5142
  80   0.0000       0.020412         0.5554
  81   0.0000       0.029379         0.7995

                 SPIN DOWN ORBITALS
  NO   OCC          E(Eh)            E(eV)
   0   1.0000    -261.543530     -7116.9613
   1   1.0000    -104.772520     -2851.0052
   2   1.0000    -104.770558     -2850.9518
   3   1.0000    -104.769543     -2850.9242
   4   1.0000     -32.052956      -872.2053
   5   1.0000     -27.531015      -749.1570
   6   1.0000     -27.530847      -749.1524
   7   1.0000     -27.530409      -749.1405
   8   1.0000     -20.542378      -558.9865
   9   1.0000     -11.375193      -309.5347
  10   1.0000     -11.371111      -309.4237
  11   1.0000     -11.292445      -307.2830
  12   1.0000     -11.283136      -307.0297
  13   1.0000     -11.266664      -306.5815
  14   1.0000     -11.251542      -306.1700
  15   1.0000     -11.250084      -306.1303
  16   1.0000     -11.242352      -305.9200
  17   1.0000     -10.499022      -285.6929
  18   1.0000     -10.497017      -285.6384
  19   1.0000     -10.496051      -285.6121
  20   1.0000      -7.964894      -216.7358
  21   1.0000      -7.964372      -216.7216
  22   1.0000      -7.964294      -216.7195
  23   1.0000      -7.962969      -216.6834
  24   1.0000      -7.962322      -216.6658
  25   1.0000      -7.962222      -216.6631
  26   1.0000      -7.962013      -216.6574
  27   1.0000      -7.961296      -216.6379
  28   1.0000      -7.961220      -216.6358
  29   1.0000      -4.128194      -112.3339
  30   1.0000      -2.650060       -72.1118
  31   1.0000      -2.649974       -72.1094
  32   1.0000      -2.649069       -72.0848
  33   1.0000      -1.375033       -37.4165
  34   1.0000      -1.187319       -32.3086
  35   1.0000      -1.080415       -29.3996
  36   1.0000      -1.044276       -28.4162
  37   1.0000      -1.030574       -28.0434
  38   1.0000      -1.019207       -27.7340
  39   1.0000      -1.017537       -27.6886
  40   1.0000      -1.009053       -27.4577
  41   1.0000      -0.974759       -26.5245
  42   1.0000      -0.930376       -25.3168
  43   1.0000      -0.798849       -21.7378
  44   1.0000      -0.772963       -21.0334
  45   1.0000      -0.704817       -19.1791
  46   1.0000      -0.692860       -18.8537
  47   1.0000      -0.671727       -18.2786
  48   1.0000      -0.658105       -17.9080
  49   1.0000      -0.648437       -17.6449
  50   1.0000      -0.628225       -17.0949
  51   1.0000      -0.601119       -16.3573
  52   1.0000      -0.597746       -16.2655
  53   1.0000      -0.592545       -16.1240
  54   1.0000      -0.580448       -15.7948
  55   1.0000      -0.573814       -15.6143
  56   1.0000      -0.562319       -15.3015
  57   1.0000      -0.557086       -15.1591
  58   1.0000      -0.540255       -14.7011
  59   1.0000      -0.531584       -14.4651
  60   1.0000      -0.518047       -14.0968
  61   1.0000      -0.501444       -13.6450
  62   1.0000      -0.469256       -12.7691
  63   1.0000      -0.464222       -12.6321
  64   1.0000      -0.455640       -12.3986
  65   1.0000      -0.435125       -11.8404
  66   1.0000      -0.432043       -11.7565
  67   1.0000      -0.430422       -11.7124
  68   1.0000      -0.424825       -11.5601
  69   1.0000      -0.409809       -11.1515
  70   1.0000      -0.397095       -10.8055
  71   1.0000      -0.392093       -10.6694
  72   0.0000       0.005408         0.1472
  73   0.0000       0.011255         0.3063
  74   0.0000       0.018899         0.5143
  75   0.0000       0.020393         0.5549
  76   0.0000       0.029384         0.7996

E(0)                                       ...  -3028.424034880
E(0)                                       ...  -3028.424034880
E(CORR)(strong-pairs)                      ...     -2.874495790
E(CORR)(weak-pairs)                        ...     -0.036219595
E(CORR)(corrected)                         ...     -2.910715385
E(TOT)                                     ...  -3031.334750265
E(CCSD(T))                                 ...  -3031.454473778
FINAL SINGLE POINT ENERGY     -3031.454473777515

DIPOLE MOMENT
-------------
                                X             Y             Z
Electronic contribution:     40.98635       6.71144       0.01208
Nuclear contribution   :    -46.15855      -6.97534      -0.27537
                        -----------------------------------------
Total Dipole Moment    :     -5.17220      -0.26390      -0.26328
                        -----------------------------------------
Magnitude (a.u.)       :      5.18562
Magnitude (Debye)      :     13.18079

Rotational constants in cm-1:     0.019306     0.011023     0.010398
Rotational constants in MHz :   578.767266   330.465081   311.720466

                             ****ORCA TERMINATED NORMALLY****
TOTAL RUN TIME: 0 days 22 hours 34 minutes 31 seconds 135 msec
