                         Program Version 4.1.2  - RELEASE  -
|  1> ! aug-cc-pVTZ aug-cc-pVTZ/C DLPNO-CCSD(T1) TightSCF NormalPNO UNO MiniPrint AutoAux
|  2> %pal nproc 10 end
|  3> %maxcore 20000
|  4> %mdci
|  5>      density none
|  6> end
|  7>
|  8> * xyz 0 6
|  9>  O     -0.38923800     -0.21181900     -0.55361700
| 10>  C     -1.43573000     -1.19372500     -0.36047600
| 11>  C     -2.76261700     -0.13957000     -0.22584300
| 12>  C     -1.96597000      1.14419100     -0.26180400
| 13>  C     -1.86510700      1.90463800     -1.52878300
| 14> Fe      1.37739900      0.03483800      0.02733300
| 15> Cl      1.81832000      2.02739500     -0.83663000
| 16>  C     -1.57662200      1.83239500      0.99027600
| 17> Cl      2.52394100     -1.67665200     -0.72231500
| 18> Cl      1.34345000      0.14848700      2.24057800
| 19>  H     -3.33787200     -0.22753300     -1.15175300
| 20>  H     -2.45140600      2.42271500      1.30987200
| 21>  H     -1.32904700      1.14057100      1.79579200
| 22>  H     -0.74285500      2.51839600      0.82618100
| 23>  H     -2.65042300      2.67865900     -1.50480100
| 24>  H     -0.89742000      2.40963700     -1.60098100
| 25>  H     -2.03061700      1.27328300     -2.40277000
| 26>  C     -3.67478800     -0.34496900      0.97697400
| 27>  H     -4.47014700      0.40899300      1.00282000
| 28>  H     -4.15510600     -1.32557500      0.90880100
| 29>  H     -3.13579100     -0.30353700      1.92614600
| 30>  C     -1.19742800     -2.02065300      0.88807000
| 31>  H     -2.01752600     -2.72625200      1.05471400
| 32>  H     -0.27483000     -2.59731100      0.75515800
| 33>  H     -1.06963300     -1.39903100      1.77621600
| 34>  C     -1.54219600     -2.04654400     -1.61063800
| 35>  H     -0.60569500     -2.59855100     -1.74666100
| 36>  H     -2.36592400     -2.76465400     -1.52937500
| 37>  H     -1.69852100     -1.42255400     -2.49552000
| 38> *
| 39>
| 40>
| 41>                          ****END OF INPUT****

CARTESIAN COORDINATES (ANGSTROEM)
---------------------------------
  O     -0.389238   -0.211819   -0.553617
  C     -1.435730   -1.193725   -0.360476
  C     -2.762617   -0.139570   -0.225843
  C     -1.965970    1.144191   -0.261804
  C     -1.865107    1.904638   -1.528783
  Fe     1.377399    0.034838    0.027333
  Cl     1.818320    2.027395   -0.836630
  C     -1.576622    1.832395    0.990276
  Cl     2.523941   -1.676652   -0.722315
  Cl     1.343450    0.148487    2.240578
  H     -3.337872   -0.227533   -1.151753
  H     -2.451406    2.422715    1.309872
  H     -1.329047    1.140571    1.795792
  H     -0.742855    2.518396    0.826181
  H     -2.650423    2.678659   -1.504801
  H     -0.897420    2.409637   -1.600981
  H     -2.030617    1.273283   -2.402770
  C     -3.674788   -0.344969    0.976974
  H     -4.470147    0.408993    1.002820
  H     -4.155106   -1.325575    0.908801
  H     -3.135791   -0.303537    1.926146
  C     -1.197428   -2.020653    0.888070
  H     -2.017526   -2.726252    1.054714
  H     -0.274830   -2.597311    0.755158
  H     -1.069633   -1.399031    1.776216
  C     -1.542196   -2.046544   -1.610638
  H     -0.605695   -2.598551   -1.746661
  H     -2.365924   -2.764654   -1.529375
  H     -1.698521   -1.422554   -2.495520

ORBITAL ENERGIES
----------------
                 SPIN UP ORBITALS
  NO   OCC          E(Eh)            E(eV)
   0   1.0000    -261.547620     -7117.0726
   1   1.0000    -104.776260     -2851.1070
   2   1.0000    -104.774599     -2851.0618
   3   1.0000    -104.771968     -2850.9902
   4   1.0000     -32.215535      -876.6293
   5   1.0000     -27.691427      -753.5220
   6   1.0000     -27.691288      -753.5182
   7   1.0000     -27.690942      -753.5089
   8   1.0000     -20.556007      -559.3574
   9   1.0000     -11.407594      -310.4164
  10   1.0000     -11.339274      -308.5573
  11   1.0000     -11.293973      -307.3246
  12   1.0000     -11.280565      -306.9598
  13   1.0000     -11.278945      -306.9157
  14   1.0000     -11.264624      -306.5260
  15   1.0000     -11.236957      -305.7732
  16   1.0000     -11.234853      -305.7159
  17   1.0000     -10.502846      -285.7970
  18   1.0000     -10.501282      -285.7544
  19   1.0000     -10.498584      -285.6810
  20   1.0000      -7.969679      -216.8660
  21   1.0000      -7.968927      -216.8455
  22   1.0000      -7.968846      -216.8433
  23   1.0000      -7.968168      -216.8249
  24   1.0000      -7.967320      -216.8018
  25   1.0000      -7.967292      -216.8010
  26   1.0000      -7.965384      -216.7491
  27   1.0000      -7.964706      -216.7307
  28   1.0000      -7.964624      -216.7284
  29   1.0000      -4.570939      -124.3816
  30   1.0000      -3.183309       -86.6222
  31   1.0000      -3.183164       -86.6183
  32   1.0000      -3.182545       -86.6015
  33   1.0000      -1.353164       -36.8215
  34   1.0000      -1.173038       -31.9200
  35   1.0000      -1.090151       -29.6645
  36   1.0000      -1.047360       -28.5001
  37   1.0000      -1.042020       -28.3548
  38   1.0000      -1.039507       -28.2864
  39   1.0000      -1.037054       -28.2197
  40   1.0000      -1.015036       -27.6205
  41   1.0000      -0.964905       -26.2564
  42   1.0000      -0.931815       -25.3560
  43   1.0000      -0.902791       -24.5662
  44   1.0000      -0.900323       -24.4990
  45   1.0000      -0.899842       -24.4859
  46   1.0000      -0.892165       -24.2771
  47   1.0000      -0.891654       -24.2631
  48   1.0000      -0.798089       -21.7171
  49   1.0000      -0.758440       -20.6382
  50   1.0000      -0.699600       -19.0371
  51   1.0000      -0.688012       -18.7217
  52   1.0000      -0.670680       -18.2501
  53   1.0000      -0.636129       -17.3100
  54   1.0000      -0.632086       -17.1999
  55   1.0000      -0.622264       -16.9327
  56   1.0000      -0.602185       -16.3863
  57   1.0000      -0.596177       -16.2228
  58   1.0000      -0.593616       -16.1531
  59   1.0000      -0.581698       -15.8288
  60   1.0000      -0.575013       -15.6469
  61   1.0000      -0.558529       -15.1984
  62   1.0000      -0.545590       -14.8463
  63   1.0000      -0.537763       -14.6333
  64   1.0000      -0.528756       -14.3882
  65   1.0000      -0.519107       -14.1256
  66   1.0000      -0.504759       -13.7352
  67   1.0000      -0.474911       -12.9230
  68   1.0000      -0.464858       -12.6494
  69   1.0000      -0.450985       -12.2719
  70   1.0000      -0.437331       -11.9004
  71   1.0000      -0.427003       -11.6193
  72   1.0000      -0.422583       -11.4991
  73   1.0000      -0.416879       -11.3438
  74   1.0000      -0.413657       -11.2562
  75   1.0000      -0.413019       -11.2388
  76   1.0000      -0.411774       -11.2049
  77   0.0000       0.006737         0.1833
  78   0.0000       0.019419         0.5284
  79   0.0000       0.021763         0.5922
  80   0.0000       0.030578         0.8321
  81   0.0000       0.036100         0.9823

                 SPIN DOWN ORBITALS
  NO   OCC          E(Eh)            E(eV)
   0   1.0000    -261.544072     -7116.9760
   1   1.0000    -104.774944     -2851.0712
   2   1.0000    -104.773222     -2851.0243
   3   1.0000    -104.770514     -2850.9506
   4   1.0000     -32.053545      -872.2213
   5   1.0000     -27.531624      -749.1736
   6   1.0000     -27.531420      -749.1680
   7   1.0000     -27.530969      -749.1558
   8   1.0000     -20.550299      -559.2021
   9   1.0000     -11.407646      -310.4178
  10   1.0000     -11.339082      -308.5521
  11   1.0000     -11.293847      -307.3212
  12   1.0000     -11.280545      -306.9592
  13   1.0000     -11.278952      -306.9159
  14   1.0000     -11.264619      -306.5259
  15   1.0000     -11.236912      -305.7719
  16   1.0000     -11.234838      -305.7155
  17   1.0000     -10.501432      -285.7585
  18   1.0000     -10.499802      -285.7141
  19   1.0000     -10.497030      -285.6387
  20   1.0000      -7.967381      -216.8035
  21   1.0000      -7.966785      -216.7872
  22   1.0000      -7.966710      -216.7852
  23   1.0000      -7.965691      -216.7575
  24   1.0000      -7.965136      -216.7424
  25   1.0000      -7.965079      -216.7408
  26   1.0000      -7.963013      -216.6846
  27   1.0000      -7.962234      -216.6634
  28   1.0000      -7.962177      -216.6618
  29   1.0000      -4.128855      -112.3518
  30   1.0000      -2.650756       -72.1307
  31   1.0000      -2.650719       -72.1297
  32   1.0000      -2.649677       -72.1014
  33   1.0000      -1.338277       -36.4164
  34   1.0000      -1.171449       -31.8768
  35   1.0000      -1.087653       -29.5965
  36   1.0000      -1.035545       -28.1786
  37   1.0000      -1.033015       -28.1098
  38   1.0000      -1.022642       -27.8275
  39   1.0000      -1.019227       -27.7346
  40   1.0000      -1.014290       -27.6002
  41   1.0000      -0.964200       -26.2372
  42   1.0000      -0.927193       -25.2302
  43   1.0000      -0.800677       -21.7875
  44   1.0000      -0.762941       -20.7607
  45   1.0000      -0.699710       -19.0401
  46   1.0000      -0.687571       -18.7098
  47   1.0000      -0.671671       -18.2771
  48   1.0000      -0.637420       -17.3451
  49   1.0000      -0.632179       -17.2025
  50   1.0000      -0.620531       -16.8855
  51   1.0000      -0.602284       -16.3890
  52   1.0000      -0.595081       -16.1930
  53   1.0000      -0.593524       -16.1506
  54   1.0000      -0.580463       -15.7952
  55   1.0000      -0.574272       -15.6267
  56   1.0000      -0.558159       -15.1883
  57   1.0000      -0.542316       -14.7572
  58   1.0000      -0.537129       -14.6160
  59   1.0000      -0.526657       -14.3311
  60   1.0000      -0.514140       -13.9905
  61   1.0000      -0.501962       -13.6591
  62   1.0000      -0.471667       -12.8347
  63   1.0000      -0.466503       -12.6942
  64   1.0000      -0.460037       -12.5183
  65   1.0000      -0.440060       -11.9747
  66   1.0000      -0.437463       -11.9040
  67   1.0000      -0.433452       -11.7948
  68   1.0000      -0.432430       -11.7670
  69   1.0000      -0.412598       -11.2274
  70   1.0000      -0.405046       -11.0219
  71   1.0000      -0.399567       -10.8728
  72   0.0000       0.006708         0.1825
  73   0.0000       0.019279         0.5246
  74   0.0000       0.021744         0.5917
  75   0.0000       0.030610         0.8329
  76   0.0000       0.035453         0.9647

E(0)                                       ...  -3028.437527634
E(0)                                       ...  -3028.437527634
E(CORR)(strong-pairs)                      ...     -2.871922507
E(CORR)(weak-pairs)                        ...     -0.035250824
E(CORR)(corrected)                         ...     -2.907173331
E(TOT)                                     ...  -3031.344700964
E(CCSD(T))                                 ...  -3031.463141812
FINAL SINGLE POINT ENERGY     -3031.463141812046

DIPOLE MOMENT
-------------
                                X             Y             Z
Electronic contribution:     40.21125       3.82047       1.72086
Nuclear contribution   :    -44.94210      -3.24093      -2.08570
                        -----------------------------------------
Total Dipole Moment    :     -4.73085       0.57953      -0.36484
                        -----------------------------------------
Magnitude (a.u.)       :      4.78015
Magnitude (Debye)      :     12.15018

Rotational constants in cm-1:     0.018964     0.011999     0.010725
Rotational constants in MHz :   568.535080   359.715700   321.528071

                             ****ORCA TERMINATED NORMALLY****
TOTAL RUN TIME: 0 days 21 hours 44 minutes 19 seconds 346 msec
