                         Program Version 4.1.2  - RELEASE  -
|  1> ! aug-cc-pVTZ aug-cc-pVTZ/C DLPNO-CCSD(T1) TightSCF NormalPNO UNO MiniPrint AutoAux
|  2> %pal nproc 10 end
|  3> %maxcore 20000
|  4> %mdci
|  5>      density none
|  6> end
|  7>
|  8> * xyz 0 6
|  9>  O     -0.34093700     -0.09501500     -0.54782900
| 10>  C     -1.24939400     -1.02727100     -0.49077200
| 11>  C     -3.09225800     -0.00544500     -0.06390000
| 12>  C     -2.24045000      1.06319400     -0.21187700
| 13>  C     -2.06588000      1.74392100     -1.53029200
| 14> Fe      1.44753200      0.05527200      0.05214900
| 15> Cl      2.04381800      1.99963900     -0.77885700
| 16>  C     -1.58997600      1.73723200      0.95404100
| 17> Cl      2.41925600     -1.73830500     -0.77313000
| 18> Cl      1.40303700      0.03239700      2.26026000
| 19>  H     -3.64816900     -0.30552400     -0.94920500
| 20>  H     -2.31340200      2.45703000      1.36466800
| 21>  H     -1.31870400      1.05025000      1.75662000
| 22>  H     -0.69885500      2.28999100      0.65034000
| 23>  H     -2.53933200      2.73307200     -1.45090200
| 24>  H     -1.00733700      1.90661300     -1.74993700
| 25>  H     -2.54597600      1.21004700     -2.35317600
| 26>  C     -3.69255500     -0.45325500      1.24432300
| 27>  H     -4.61073400      0.11740300      1.43672600
| 28>  H     -3.97431500     -1.50984800      1.21673100
| 29>  H     -3.02818900     -0.29913100      2.09703000
| 30>  C     -1.18646400     -1.97327800      0.67827500
| 31>  H     -2.05129100     -2.63477700      0.73749000
| 32>  H     -0.29252500     -2.58933300      0.50136700
| 33>  H     -1.02965600     -1.44946500      1.62164700
| 34>  C     -1.63474300     -1.63015900     -1.81911800
| 35>  H     -0.76796200     -2.23084000     -2.12904600
| 36>  H     -2.50838400     -2.28158900     -1.74818600
| 37>  H     -1.78706700     -0.86390600     -2.58014600
| 38> *
| 39>
| 40>
| 41>                          ****END OF INPUT****

CARTESIAN COORDINATES (ANGSTROEM)
---------------------------------
  O     -0.340937   -0.095015   -0.547829
  C     -1.249394   -1.027271   -0.490772
  C     -3.092258   -0.005445   -0.063900
  C     -2.240450    1.063194   -0.211877
  C     -2.065880    1.743921   -1.530292
  Fe     1.447532    0.055272    0.052149
  Cl     2.043818    1.999639   -0.778857
  C     -1.589976    1.737232    0.954041
  Cl     2.419256   -1.738305   -0.773130
  Cl     1.403037    0.032397    2.260260
  H     -3.648169   -0.305524   -0.949205
  H     -2.313402    2.457030    1.364668
  H     -1.318704    1.050250    1.756620
  H     -0.698855    2.289991    0.650340
  H     -2.539332    2.733072   -1.450902
  H     -1.007337    1.906613   -1.749937
  H     -2.545976    1.210047   -2.353176
  C     -3.692555   -0.453255    1.244323
  H     -4.610734    0.117403    1.436726
  H     -3.974315   -1.509848    1.216731
  H     -3.028189   -0.299131    2.097030
  C     -1.186464   -1.973278    0.678275
  H     -2.051291   -2.634777    0.737490
  H     -0.292525   -2.589333    0.501367
  H     -1.029656   -1.449465    1.621647
  C     -1.634743   -1.630159   -1.819118
  H     -0.767962   -2.230840   -2.129046
  H     -2.508384   -2.281589   -1.748186
  H     -1.787067   -0.863906   -2.580146

ORBITAL ENERGIES
----------------
                 SPIN UP ORBITALS
  NO   OCC          E(Eh)            E(eV)
   0   1.0000    -261.559260     -7117.3893
   1   1.0000    -104.781565     -2851.2513
   2   1.0000    -104.780736     -2851.2288
   3   1.0000    -104.780501     -2851.2224
   4   1.0000     -32.227116      -876.9444
   5   1.0000     -27.703255      -753.8439
   6   1.0000     -27.702653      -753.8275
   7   1.0000     -27.702504      -753.8234
   8   1.0000     -20.570113      -559.7412
   9   1.0000     -11.408178      -310.4323
  10   1.0000     -11.330150      -308.3090
  11   1.0000     -11.267075      -306.5927
  12   1.0000     -11.265127      -306.5397
  13   1.0000     -11.260671      -306.4184
  14   1.0000     -11.257050      -306.3199
  15   1.0000     -11.256687      -306.3100
  16   1.0000     -11.253134      -306.2134
  17   1.0000     -10.508191      -285.9424
  18   1.0000     -10.507308      -285.9184
  19   1.0000     -10.507043      -285.9112
  20   1.0000      -7.975066      -217.0126
  21   1.0000      -7.974252      -216.9904
  22   1.0000      -7.974206      -216.9892
  23   1.0000      -7.974160      -216.9879
  24   1.0000      -7.973845      -216.9793
  25   1.0000      -7.973406      -216.9674
  26   1.0000      -7.973320      -216.9651
  27   1.0000      -7.973156      -216.9606
  28   1.0000      -7.973074      -216.9584
  29   1.0000      -4.582465      -124.6952
  30   1.0000      -3.195362       -86.9502
  31   1.0000      -3.194305       -86.9215
  32   1.0000      -3.193882       -86.9100
  33   1.0000      -1.423400       -38.7327
  34   1.0000      -1.159801       -31.5598
  35   1.0000      -1.091314       -29.6962
  36   1.0000      -1.054133       -28.6844
  37   1.0000      -1.048677       -28.5360
  38   1.0000      -1.047175       -28.4951
  39   1.0000      -1.035908       -28.1885
  40   1.0000      -1.000738       -27.2315
  41   1.0000      -0.982234       -26.7279
  42   1.0000      -0.931421       -25.3452
  43   1.0000      -0.918116       -24.9832
  44   1.0000      -0.912013       -24.8171
  45   1.0000      -0.911915       -24.8145
  46   1.0000      -0.902404       -24.5556
  47   1.0000      -0.901967       -24.5438
  48   1.0000      -0.793822       -21.6010
  49   1.0000      -0.754017       -20.5179
  50   1.0000      -0.698444       -19.0056
  51   1.0000      -0.691587       -18.8190
  52   1.0000      -0.683887       -18.6095
  53   1.0000      -0.666624       -18.1398
  54   1.0000      -0.640215       -17.4211
  55   1.0000      -0.620443       -16.8831
  56   1.0000      -0.601963       -16.3802
  57   1.0000      -0.597033       -16.2461
  58   1.0000      -0.583196       -15.8696
  59   1.0000      -0.574920       -15.6444
  60   1.0000      -0.574688       -15.6381
  61   1.0000      -0.567861       -15.4523
  62   1.0000      -0.551509       -15.0073
  63   1.0000      -0.548550       -14.9268
  64   1.0000      -0.544030       -14.8038
  65   1.0000      -0.520690       -14.1687
  66   1.0000      -0.516314       -14.0496
  67   1.0000      -0.486689       -13.2435
  68   1.0000      -0.468701       -12.7540
  69   1.0000      -0.459228       -12.4962
  70   1.0000      -0.436421       -11.8756
  71   1.0000      -0.430952       -11.7268
  72   1.0000      -0.429140       -11.6775
  73   1.0000      -0.421522       -11.4702
  74   1.0000      -0.419442       -11.4136
  75   1.0000      -0.419045       -11.4028
  76   1.0000      -0.373066       -10.1516
  77   0.0000       0.011018         0.2998
  78   0.0000       0.021544         0.5863
  79   0.0000       0.022907         0.6233
  80   0.0000       0.030288         0.8242
  81   0.0000       0.038791         1.0556

                 SPIN DOWN ORBITALS
  NO   OCC          E(Eh)            E(eV)
   0   1.0000    -261.555707     -7117.2926
   1   1.0000    -104.780141     -2851.2126
   2   1.0000    -104.779281     -2851.1892
   3   1.0000    -104.779087     -2851.1839
   4   1.0000     -32.065089      -872.5354
   5   1.0000     -27.543064      -749.4849
   6   1.0000     -27.542980      -749.4826
   7   1.0000     -27.542645      -749.4735
   8   1.0000     -20.565419      -559.6135
   9   1.0000     -11.408081      -310.4297
  10   1.0000     -11.330173      -308.3097
  11   1.0000     -11.266721      -306.5831
  12   1.0000     -11.265032      -306.5371
  13   1.0000     -11.260642      -306.4176
  14   1.0000     -11.257036      -306.3195
  15   1.0000     -11.256725      -306.3111
  16   1.0000     -11.253150      -306.2138
  17   1.0000     -10.506664      -285.9009
  18   1.0000     -10.505750      -285.8760
  19   1.0000     -10.505533      -285.8701
  20   1.0000      -7.972560      -216.9444
  21   1.0000      -7.971953      -216.9279
  22   1.0000      -7.971880      -216.9259
  23   1.0000      -7.971662      -216.9199
  24   1.0000      -7.971515      -216.9159
  25   1.0000      -7.971010      -216.9022
  26   1.0000      -7.970919      -216.8997
  27   1.0000      -7.970775      -216.8958
  28   1.0000      -7.970683      -216.8933
  29   1.0000      -4.140227      -112.6613
  30   1.0000      -2.661917       -72.4344
  31   1.0000      -2.661832       -72.4321
  32   1.0000      -2.661397       -72.4203
  33   1.0000      -1.411465       -38.4079
  34   1.0000      -1.158806       -31.5327
  35   1.0000      -1.088642       -29.6235
  36   1.0000      -1.039350       -28.2822
  37   1.0000      -1.035311       -28.1722
  38   1.0000      -1.027477       -27.9591
  39   1.0000      -1.026597       -27.9351
  40   1.0000      -0.999951       -27.2100
  41   1.0000      -0.982150       -26.7257
  42   1.0000      -0.921828       -25.0842
  43   1.0000      -0.807748       -21.9799
  44   1.0000      -0.754142       -20.5213
  45   1.0000      -0.698566       -19.0090
  46   1.0000      -0.693935       -18.8829
  47   1.0000      -0.683115       -18.5885
  48   1.0000      -0.666029       -18.1236
  49   1.0000      -0.640148       -17.4193
  50   1.0000      -0.620323       -16.8799
  51   1.0000      -0.601146       -16.3580
  52   1.0000      -0.596958       -16.2441
  53   1.0000      -0.583029       -15.8650
  54   1.0000      -0.574621       -15.6362
  55   1.0000      -0.574594       -15.6355
  56   1.0000      -0.567529       -15.4433
  57   1.0000      -0.551174       -14.9982
  58   1.0000      -0.548118       -14.9151
  59   1.0000      -0.539489       -14.6803
  60   1.0000      -0.520102       -14.1527
  61   1.0000      -0.509907       -13.8753
  62   1.0000      -0.483705       -13.1623
  63   1.0000      -0.472789       -12.8652
  64   1.0000      -0.470100       -12.7921
  65   1.0000      -0.443232       -12.0610
  66   1.0000      -0.440538       -11.9877
  67   1.0000      -0.438437       -11.9305
  68   1.0000      -0.425395       -11.5756
  69   1.0000      -0.418526       -11.3887
  70   1.0000      -0.405168       -11.0252
  71   1.0000      -0.371429       -10.1071
  72   0.0000       0.011017         0.2998
  73   0.0000       0.021506         0.5852
  74   0.0000       0.022883         0.6227
  75   0.0000       0.030317         0.8250
  76   0.0000       0.038767         1.0549

E(0)                                       ...  -3028.422682375
E(0)                                       ...  -3028.422682375
E(CORR)(strong-pairs)                      ...     -2.873463035
E(CORR)(weak-pairs)                        ...     -0.035533532
E(CORR)(corrected)                         ...     -2.908996567
E(TOT)                                     ...  -3031.331678942
E(CCSD(T))                                 ...  -3031.451501258
FINAL SINGLE POINT ENERGY     -3031.451501257660

DIPOLE MOMENT
-------------
                                X             Y             Z
Electronic contribution:     42.10573       2.51476       2.19428
Nuclear contribution   :    -46.30524      -2.92259      -2.69734
                        -----------------------------------------
Total Dipole Moment    :     -4.19951      -0.40782      -0.50306
                        -----------------------------------------
Magnitude (a.u.)       :      4.24915
Magnitude (Debye)      :     10.80048

Rotational constants in cm-1:     0.019557     0.011238     0.010497
Rotational constants in MHz :   586.289296   336.903707   314.702461

                             ****ORCA TERMINATED NORMALLY****
TOTAL RUN TIME: 0 days 20 hours 57 minutes 13 seconds 79 msec
