                         Program Version 4.1.2  - RELEASE  -
|  1> ! aug-cc-pVTZ aug-cc-pVTZ/C DLPNO-CCSD(T1) TightSCF NormalPNO UNO MiniPrint AutoAux
|  2> %pal nproc 10 end
|  3> %maxcore 20000
|  4> %mdci
|  5>      density none
|  6> end
|  7>
|  8> * xyz 0 6
|  9>  O     -0.35647200     -0.12180500     -0.47539300
| 10>  C     -1.24572200     -1.11527600     -0.32805000
| 11>  C     -2.56009200     -0.45065600      0.61704800
| 12>  C     -2.75930800      0.78085300     -0.06119300
| 13>  C     -3.68646400      0.87954400     -1.21802900
| 14> Fe      1.44337100      0.16761800     -0.06975100
| 15> Cl      1.70091700      2.24537400     -0.78175800
| 16>  C     -1.99896800      1.97841700      0.28565800
| 17> Cl      2.60151100     -1.38472500     -1.11184600
| 18> Cl      1.62992400      0.04607000      2.13873600
| 19>  H     -3.36440900     -1.16366800      0.42272300
| 20>  H     -2.38185900      2.89001200     -0.17627500
| 21>  H     -1.83704400      2.10477500      1.35818300
| 22>  H     -0.99085600      1.76730600     -0.13722100
| 23>  H     -4.49359700      1.57178300     -0.93471300
| 24>  H     -3.18387700      1.34242100     -2.07729100
| 25>  H     -4.12959400     -0.07334100     -1.50699200
| 26>  C     -2.15816100     -0.37396300      2.09035500
| 27>  H     -2.86138200      0.26046900      2.64039300
| 28>  H     -2.18674500     -1.36657200      2.54229100
| 29>  H     -1.15009900      0.02700100      2.21908200
| 30>  C     -0.73730800     -2.30622000      0.49401700
| 31>  H     -1.53014200     -3.03386600      0.69178300
| 32>  H      0.03961100     -2.78967500     -0.10857700
| 33>  H     -0.27912600     -1.99113800      1.43097800
| 34>  C     -1.77769500     -1.59072600     -1.68371200
| 35>  H     -0.96335400     -2.13481300     -2.17226900
| 36>  H     -2.63375600     -2.26619700     -1.58554200
| 37>  H     -2.03732100     -0.75417500     -2.33366800
| 38> *
| 39>
| 40>
| 41>                          ****END OF INPUT****

CARTESIAN COORDINATES (ANGSTROEM)
---------------------------------
  O     -0.356472   -0.121805   -0.475393
  C     -1.245722   -1.115276   -0.328050
  C     -2.560092   -0.450656    0.617048
  C     -2.759308    0.780853   -0.061193
  C     -3.686464    0.879544   -1.218029
  Fe     1.443371    0.167618   -0.069751
  Cl     1.700917    2.245374   -0.781758
  C     -1.998968    1.978417    0.285658
  Cl     2.601511   -1.384725   -1.111846
  Cl     1.629924    0.046070    2.138736
  H     -3.364409   -1.163668    0.422723
  H     -2.381859    2.890012   -0.176275
  H     -1.837044    2.104775    1.358183
  H     -0.990856    1.767306   -0.137221
  H     -4.493597    1.571783   -0.934713
  H     -3.183877    1.342421   -2.077291
  H     -4.129594   -0.073341   -1.506992
  C     -2.158161   -0.373963    2.090355
  H     -2.861382    0.260469    2.640393
  H     -2.186745   -1.366572    2.542291
  H     -1.150099    0.027001    2.219082
  C     -0.737308   -2.306220    0.494017
  H     -1.530142   -3.033866    0.691783
  H      0.039611   -2.789675   -0.108577
  H     -0.279126   -1.991138    1.430978
  C     -1.777695   -1.590726   -1.683712
  H     -0.963354   -2.134813   -2.172269
  H     -2.633756   -2.266197   -1.585542
  H     -2.037321   -0.754175   -2.333668

ORBITAL ENERGIES
----------------
                 SPIN UP ORBITALS
  NO   OCC          E(Eh)            E(eV)
   0   1.0000    -261.542350     -7116.9292
   1   1.0000    -104.770283     -2850.9443
   2   1.0000    -104.769430     -2850.9211
   3   1.0000    -104.767654     -2850.8728
   4   1.0000     -32.210283      -876.4864
   5   1.0000     -27.686135      -753.3780
   6   1.0000     -27.686035      -753.3753
   7   1.0000     -27.685739      -753.3673
   8   1.0000     -20.538570      -558.8829
   9   1.0000     -11.392738      -310.0122
  10   1.0000     -11.355864      -309.0088
  11   1.0000     -11.301094      -307.5184
  12   1.0000     -11.288167      -307.1666
  13   1.0000     -11.272785      -306.7481
  14   1.0000     -11.253633      -306.2269
  15   1.0000     -11.245252      -305.9989
  16   1.0000     -11.236267      -305.7544
  17   1.0000     -10.496869      -285.6343
  18   1.0000     -10.495964      -285.6097
  19   1.0000     -10.494244      -285.5629
  20   1.0000      -7.963753      -216.7047
  21   1.0000      -7.962913      -216.6819
  22   1.0000      -7.962853      -216.6802
  23   1.0000      -7.962796      -216.6787
  24   1.0000      -7.962054      -216.6585
  25   1.0000      -7.961961      -216.6560
  26   1.0000      -7.961060      -216.6314
  27   1.0000      -7.960350      -216.6121
  28   1.0000      -7.960273      -216.6100
  29   1.0000      -4.565760      -124.2406
  30   1.0000      -3.178244       -86.4844
  31   1.0000      -3.177947       -86.4763
  32   1.0000      -3.177362       -86.4604
  33   1.0000      -1.376599       -37.4592
  34   1.0000      -1.197640       -32.5894
  35   1.0000      -1.086524       -29.5658
  36   1.0000      -1.046014       -28.4635
  37   1.0000      -1.041297       -28.3351
  38   1.0000      -1.036043       -28.1922
  39   1.0000      -1.034254       -28.1435
  40   1.0000      -1.016634       -27.6640
  41   1.0000      -0.970073       -26.3970
  42   1.0000      -0.933881       -25.4122
  43   1.0000      -0.907699       -24.6998
  44   1.0000      -0.895342       -24.3635
  45   1.0000      -0.895262       -24.3613
  46   1.0000      -0.886947       -24.1351
  47   1.0000      -0.886645       -24.1268
  48   1.0000      -0.796204       -21.6658
  49   1.0000      -0.768381       -20.9087
  50   1.0000      -0.710830       -19.3427
  51   1.0000      -0.696579       -18.9549
  52   1.0000      -0.675659       -18.3856
  53   1.0000      -0.650563       -17.7027
  54   1.0000      -0.647449       -17.6180
  55   1.0000      -0.631060       -17.1720
  56   1.0000      -0.605999       -16.4901
  57   1.0000      -0.601529       -16.3684
  58   1.0000      -0.590716       -16.0742
  59   1.0000      -0.585594       -15.9348
  60   1.0000      -0.571824       -15.5601
  61   1.0000      -0.561956       -15.2916
  62   1.0000      -0.556940       -15.1551
  63   1.0000      -0.538080       -14.6419
  64   1.0000      -0.531589       -14.4653
  65   1.0000      -0.518989       -14.1224
  66   1.0000      -0.503957       -13.7134
  67   1.0000      -0.466219       -12.6865
  68   1.0000      -0.459142       -12.4939
  69   1.0000      -0.442734       -12.0474
  70   1.0000      -0.427145       -11.6232
  71   1.0000      -0.420971       -11.4552
  72   1.0000      -0.416842       -11.3428
  73   1.0000      -0.410284       -11.1644
  74   1.0000      -0.407885       -11.0991
  75   1.0000      -0.407234       -11.0814
  76   1.0000      -0.405674       -11.0390
  77   0.0000       0.002212         0.0602
  78   0.0000       0.004123         0.1122
  79   0.0000       0.017948         0.4884
  80   0.0000       0.019133         0.5206
  81   0.0000       0.028403         0.7729

                 SPIN DOWN ORBITALS
  NO   OCC          E(Eh)            E(eV)
   0   1.0000    -261.538800     -7116.8326
   1   1.0000    -104.768928     -2850.9075
   2   1.0000    -104.768091     -2850.8847
   3   1.0000    -104.766240     -2850.8343
   4   1.0000     -32.048240      -872.0769
   5   1.0000     -27.526331      -749.0296
   6   1.0000     -27.526135      -749.0242
   7   1.0000     -27.525649      -749.0110
   8   1.0000     -20.532804      -558.7260
   9   1.0000     -11.392732      -310.0120
  10   1.0000     -11.355775      -309.0063
  11   1.0000     -11.301096      -307.5185
  12   1.0000     -11.287991      -307.1619
  13   1.0000     -11.272809      -306.7487
  14   1.0000     -11.253657      -306.2276
  15   1.0000     -11.245146      -305.9960
  16   1.0000     -11.236225      -305.7532
  17   1.0000     -10.495410      -285.5946
  18   1.0000     -10.494528      -285.5706
  19   1.0000     -10.492729      -285.5217
  20   1.0000      -7.961287      -216.6376
  21   1.0000      -7.960772      -216.6236
  22   1.0000      -7.960693      -216.6215
  23   1.0000      -7.960472      -216.6155
  24   1.0000      -7.959871      -216.5991
  25   1.0000      -7.959767      -216.5963
  26   1.0000      -7.958702      -216.5673
  27   1.0000      -7.957983      -216.5477
  28   1.0000      -7.957910      -216.5458
  29   1.0000      -4.123564      -112.2079
  30   1.0000      -2.645465       -71.9868
  31   1.0000      -2.645378       -71.9844
  32   1.0000      -2.644464       -71.9595
  33   1.0000      -1.361925       -37.0599
  34   1.0000      -1.196668       -32.5630
  35   1.0000      -1.084010       -29.4974
  36   1.0000      -1.044909       -28.4334
  37   1.0000      -1.027108       -27.9490
  38   1.0000      -1.016842       -27.6697
  39   1.0000      -1.015314       -27.6281
  40   1.0000      -1.014290       -27.6002
  41   1.0000      -0.969262       -26.3749
  42   1.0000      -0.933009       -25.3885
  43   1.0000      -0.802034       -21.8245
  44   1.0000      -0.775246       -21.0955
  45   1.0000      -0.711501       -19.3609
  46   1.0000      -0.695815       -18.9341
  47   1.0000      -0.675905       -18.3923
  48   1.0000      -0.652809       -17.7638
  49   1.0000      -0.646237       -17.5850
  50   1.0000      -0.629932       -17.1413
  51   1.0000      -0.606140       -16.4939
  52   1.0000      -0.601638       -16.3714
  53   1.0000      -0.589322       -16.0363
  54   1.0000      -0.585611       -15.9353
  55   1.0000      -0.570569       -15.5260
  56   1.0000      -0.561699       -15.2846
  57   1.0000      -0.556588       -15.1455
  58   1.0000      -0.537425       -14.6241
  59   1.0000      -0.530372       -14.4322
  60   1.0000      -0.514059       -13.9882
  61   1.0000      -0.497607       -13.5406
  62   1.0000      -0.464962       -12.6523
  63   1.0000      -0.461259       -12.5515
  64   1.0000      -0.449263       -12.2251
  65   1.0000      -0.432298       -11.7634
  66   1.0000      -0.430799       -11.7226
  67   1.0000      -0.428033       -11.6474
  68   1.0000      -0.426687       -11.6107
  69   1.0000      -0.406817       -11.0701
  70   1.0000      -0.395568       -10.7639
  71   1.0000      -0.394052       -10.7227
  72   0.0000       0.002120         0.0577
  73   0.0000       0.004019         0.1094
  74   0.0000       0.017946         0.4883
  75   0.0000       0.019118         0.5202
  76   0.0000       0.028420         0.7733

E(0)                                       ...  -3028.424455299
E(0)                                       ...  -3028.424455299
E(CORR)(strong-pairs)                      ...     -2.873458079
E(CORR)(weak-pairs)                        ...     -0.035701533
E(CORR)(corrected)                         ...     -2.909159613
E(TOT)                                     ...  -3031.333614912
E(CCSD(T))                                 ...  -3031.452536172
FINAL SINGLE POINT ENERGY     -3031.452536172174

DIPOLE MOMENT
-------------
                                X             Y             Z
Electronic contribution:     40.74372       7.16197      -0.36177
Nuclear contribution   :    -46.24815      -7.27476       0.17493
                        -----------------------------------------
Total Dipole Moment    :     -5.50443      -0.11279      -0.18684
                        -----------------------------------------
Magnitude (a.u.)       :      5.50875
Magnitude (Debye)      :     14.00214

Rotational constants in cm-1:     0.019386     0.010981     0.010364
Rotational constants in MHz :   581.190830   329.207161   310.705530

                             ****ORCA TERMINATED NORMALLY****
TOTAL RUN TIME: 0 days 20 hours 25 minutes 30 seconds 539 msec
