                         Program Version 4.1.2  - RELEASE  -
|  1> ! aug-cc-pVTZ aug-cc-pVTZ/C DLPNO-CCSD(T1) TightSCF NormalPNO UNO MiniPrint AutoAux
|  2> %pal nproc 10 end
|  3> %maxcore 20000
|  4> %mdci
|  5>      density none
|  6> end
|  7>
|  8> * xyz 0 6
|  9>  O      0.21923700      0.31268100     -0.80604900
| 10>  C      1.08170600      1.22613700     -0.62069600
| 11>  C      2.84883800      0.29405400      0.61662800
| 12>  C      2.75710100     -0.87955300     -0.06590500
| 13>  C      3.49053900     -1.10549700     -1.35488000
| 14> Fe     -1.49007200     -0.16676700     -0.02563900
| 15> Cl     -2.00491700     -2.04463900     -1.00970700
| 16>  C      1.86112200     -1.99862400      0.35937200
| 17> Cl     -2.73539900      1.56212500     -0.52942600
| 18> Cl     -1.19964800     -0.38663300      2.14448300
| 19>  H      3.56369500      1.02383900      0.23867500
| 20>  H      2.38792200     -2.95898000      0.30901300
| 21>  H      1.44613000     -1.87358300      1.35924200
| 22>  H      1.02054300     -2.06878300     -0.34725100
| 23>  H      4.16055300     -1.96834200     -1.24551600
| 24>  H      2.79382200     -1.35948700     -2.16511900
| 25>  H      4.09425000     -0.24546000     -1.65427000
| 26>  C      2.46335800      0.46143200      2.06934700
| 27>  H      3.17737100     -0.08327600      2.70017900
| 28>  H      2.50592100      1.50943600      2.37391600
| 29>  H      1.46570300      0.08278800      2.29974900
| 30>  C      0.80751400      2.28825500      0.40979900
| 31>  H      1.68289500      2.90260600      0.62431500
| 32>  H      0.03333500      2.92794900     -0.03831400
| 33>  H      0.39227800      1.87428500      1.32816600
| 34>  C      1.87787500      1.63971600     -1.83221700
| 35>  H      1.23045800      2.33056900     -2.39025100
| 36>  H      2.79612300      2.17045100     -1.57693100
| 37>  H      2.08805100      0.79045800     -2.48024500
| 38> *
| 39>
| 40>
| 41>                          ****END OF INPUT****

CARTESIAN COORDINATES (ANGSTROEM)
---------------------------------
  O      0.219237    0.312681   -0.806049
  C      1.081706    1.226137   -0.620696
  C      2.848838    0.294054    0.616628
  C      2.757101   -0.879553   -0.065905
  C      3.490539   -1.105497   -1.354880
  Fe    -1.490072   -0.166767   -0.025639
  Cl    -2.004917   -2.044639   -1.009707
  C      1.861122   -1.998624    0.359372
  Cl    -2.735399    1.562125   -0.529426
  Cl    -1.199648   -0.386633    2.144483
  H      3.563695    1.023839    0.238675
  H      2.387922   -2.958980    0.309013
  H      1.446130   -1.873583    1.359242
  H      1.020543   -2.068783   -0.347251
  H      4.160553   -1.968342   -1.245516
  H      2.793822   -1.359487   -2.165119
  H      4.094250   -0.245460   -1.654270
  C      2.463358    0.461432    2.069347
  H      3.177371   -0.083276    2.700179
  H      2.505921    1.509436    2.373916
  H      1.465703    0.082788    2.299749
  C      0.807514    2.288255    0.409799
  H      1.682895    2.902606    0.624315
  H      0.033335    2.927949   -0.038314
  H      0.392278    1.874285    1.328166
  C      1.877875    1.639716   -1.832217
  H      1.230458    2.330569   -2.390251
  H      2.796123    2.170451   -1.576931
  H      2.088051    0.790458   -2.480245

ORBITAL ENERGIES
----------------
                 SPIN UP ORBITALS
  NO   OCC          E(Eh)            E(eV)
   0   1.0000    -261.568418     -7117.6385
   1   1.0000    -104.789384     -2851.4641
   2   1.0000    -104.785573     -2851.3604
   3   1.0000    -104.783363     -2851.3003
   4   1.0000     -32.236210      -877.1919
   5   1.0000     -27.712565      -754.0972
   6   1.0000     -27.711631      -754.0718
   7   1.0000     -27.711431      -754.0664
   8   1.0000     -20.604115      -560.6665
   9   1.0000     -11.416829      -310.6677
  10   1.0000     -11.291048      -307.2450
  11   1.0000     -11.272841      -306.7496
  12   1.0000     -11.268475      -306.6308
  13   1.0000     -11.255531      -306.2786
  14   1.0000     -11.254666      -306.2550
  15   1.0000     -11.239431      -305.8405
  16   1.0000     -11.239039      -305.8298
  17   1.0000     -10.516092      -286.1574
  18   1.0000     -10.512245      -286.0527
  19   1.0000     -10.509985      -285.9912
  20   1.0000      -7.982937      -217.2268
  21   1.0000      -7.982152      -217.2054
  22   1.0000      -7.982121      -217.2046
  23   1.0000      -7.979103      -217.1224
  24   1.0000      -7.978347      -217.1019
  25   1.0000      -7.978293      -217.1004
  26   1.0000      -7.976794      -217.0596
  27   1.0000      -7.976112      -217.0410
  28   1.0000      -7.976045      -217.0392
  29   1.0000      -4.591278      -124.9350
  30   1.0000      -3.204364       -87.1952
  31   1.0000      -3.202804       -87.1527
  32   1.0000      -3.202607       -87.1474
  33   1.0000      -1.446920       -39.3727
  34   1.0000      -1.141340       -31.0574
  35   1.0000      -1.094230       -29.7755
  36   1.0000      -1.061654       -28.8891
  37   1.0000      -1.055733       -28.7279
  38   1.0000      -1.052387       -28.6369
  39   1.0000      -1.027124       -27.9495
  40   1.0000      -1.004546       -27.3351
  41   1.0000      -0.970668       -26.4132
  42   1.0000      -0.936934       -25.4953
  43   1.0000      -0.920378       -25.0448
  44   1.0000      -0.920235       -25.0409
  45   1.0000      -0.910167       -24.7669
  46   1.0000      -0.909331       -24.7442
  47   1.0000      -0.904920       -24.6241
  48   1.0000      -0.806354       -21.9420
  49   1.0000      -0.742342       -20.2001
  50   1.0000      -0.701941       -19.1008
  51   1.0000      -0.692529       -18.8447
  52   1.0000      -0.682295       -18.5662
  53   1.0000      -0.664510       -18.0822
  54   1.0000      -0.631214       -17.1762
  55   1.0000      -0.621852       -16.9214
  56   1.0000      -0.605798       -16.4846
  57   1.0000      -0.596819       -16.2403
  58   1.0000      -0.583383       -15.8747
  59   1.0000      -0.575829       -15.6691
  60   1.0000      -0.562020       -15.2933
  61   1.0000      -0.560695       -15.2573
  62   1.0000      -0.550101       -14.9690
  63   1.0000      -0.544631       -14.8202
  64   1.0000      -0.534895       -14.5552
  65   1.0000      -0.529538       -14.4095
  66   1.0000      -0.504962       -13.7407
  67   1.0000      -0.495368       -13.4796
  68   1.0000      -0.472819       -12.8661
  69   1.0000      -0.469931       -12.7875
  70   1.0000      -0.441528       -12.0146
  71   1.0000      -0.436182       -11.8691
  72   1.0000      -0.433990       -11.8095
  73   1.0000      -0.425705       -11.5840
  74   1.0000      -0.424288       -11.5455
  75   1.0000      -0.422958       -11.5093
  76   1.0000      -0.367808       -10.0086
  77   0.0000       0.011827         0.3218
  78   0.0000       0.022168         0.6032
  79   0.0000       0.023450         0.6381
  80   0.0000       0.029713         0.8085
  81   0.0000       0.038444         1.0461

                 SPIN DOWN ORBITALS
  NO   OCC          E(Eh)            E(eV)
   0   1.0000    -261.564846     -7117.5413
   1   1.0000    -104.787922     -2851.4243
   2   1.0000    -104.784042     -2851.3187
   3   1.0000    -104.781838     -2851.2588
   4   1.0000     -32.074178      -872.7828
   5   1.0000     -27.552098      -749.7307
   6   1.0000     -27.552041      -749.7291
   7   1.0000     -27.551871      -749.7245
   8   1.0000     -20.600250      -560.5613
   9   1.0000     -11.416725      -310.6649
  10   1.0000     -11.290920      -307.2416
  11   1.0000     -11.272731      -306.7466
  12   1.0000     -11.268460      -306.6304
  13   1.0000     -11.255548      -306.2790
  14   1.0000     -11.254718      -306.2565
  15   1.0000     -11.239460      -305.8412
  16   1.0000     -11.239031      -305.8296
  17   1.0000     -10.514528      -286.1148
  18   1.0000     -10.510611      -286.0083
  19   1.0000     -10.508362      -285.9471
  20   1.0000      -7.980428      -217.1585
  21   1.0000      -7.979752      -217.1401
  22   1.0000      -7.979704      -217.1388
  23   1.0000      -7.976519      -217.0521
  24   1.0000      -7.975810      -217.0328
  25   1.0000      -7.975724      -217.0305
  26   1.0000      -7.974336      -216.9927
  27   1.0000      -7.973511      -216.9703
  28   1.0000      -7.973421      -216.9678
  29   1.0000      -4.149077      -112.9021
  30   1.0000      -2.670704       -72.6735
  31   1.0000      -2.670641       -72.6718
  32   1.0000      -2.670112       -72.6575
  33   1.0000      -1.437263       -39.1099
  34   1.0000      -1.140896       -31.0454
  35   1.0000      -1.091537       -29.7022
  36   1.0000      -1.046263       -28.4703
  37   1.0000      -1.033947       -28.1351
  38   1.0000      -1.030255       -28.0347
  39   1.0000      -1.026498       -27.9324
  40   1.0000      -1.003877       -27.3169
  41   1.0000      -0.970595       -26.4112
  42   1.0000      -0.905253       -24.6332
  43   1.0000      -0.820672       -22.3316
  44   1.0000      -0.742441       -20.2029
  45   1.0000      -0.704547       -19.1717
  46   1.0000      -0.691486       -18.8163
  47   1.0000      -0.681644       -18.5485
  48   1.0000      -0.664404       -18.0794
  49   1.0000      -0.631183       -17.1753
  50   1.0000      -0.621377       -16.9085
  51   1.0000      -0.605351       -16.4724
  52   1.0000      -0.596689       -16.2367
  53   1.0000      -0.583091       -15.8667
  54   1.0000      -0.574225       -15.6255
  55   1.0000      -0.561903       -15.2902
  56   1.0000      -0.560486       -15.2516
  57   1.0000      -0.549940       -14.9646
  58   1.0000      -0.542786       -14.7699
  59   1.0000      -0.533504       -14.5174
  60   1.0000      -0.518939       -14.1210
  61   1.0000      -0.504837       -13.7373
  62   1.0000      -0.496421       -13.5083
  63   1.0000      -0.480098       -13.0641
  64   1.0000      -0.477102       -12.9826
  65   1.0000      -0.449890       -12.2421
  66   1.0000      -0.445953       -12.1350
  67   1.0000      -0.443376       -12.0649
  68   1.0000      -0.427868       -11.6429
  69   1.0000      -0.423613       -11.5271
  70   1.0000      -0.409029       -11.1303
  71   1.0000      -0.366656        -9.9772
  72   0.0000       0.011811         0.3214
  73   0.0000       0.022143         0.6025
  74   0.0000       0.023420         0.6373
  75   0.0000       0.029537         0.8037
  76   0.0000       0.038063         1.0357

E(0)                                       ...  -3028.449771940
E(0)                                       ...  -3028.449771940
E(CORR)(strong-pairs)                      ...     -2.870501659
E(CORR)(weak-pairs)                        ...     -0.036133684
E(CORR)(corrected)                         ...     -2.906635343
E(TOT)                                     ...  -3031.356407284
E(CCSD(T))                                 ...  -3031.475416045
FINAL SINGLE POINT ENERGY     -3031.475416045334

DIPOLE MOMENT
-------------
                                X             Y             Z
Electronic contribution:    -43.42978      -5.51265       0.85628
Nuclear contribution   :     47.25302       6.68777      -1.39260
                        -----------------------------------------
Total Dipole Moment    :      3.82324       1.17512      -0.53632
                        -----------------------------------------
Magnitude (a.u.)       :      4.03555
Magnitude (Debye)      :     10.25756

Rotational constants in cm-1:     0.019126     0.010663     0.010047
Rotational constants in MHz :   573.380086   319.656211   301.189770

                             ****ORCA TERMINATED NORMALLY****
TOTAL RUN TIME: 0 days 18 hours 45 minutes 24 seconds 559 msec
