                         Program Version 4.1.2  - RELEASE  -
|  1> ! aug-cc-pVTZ aug-cc-pVTZ/C DLPNO-CCSD(T1) TightSCF NormalPNO UNO MiniPrint AutoAux
|  2> %pal nproc 10 end
|  3> %maxcore 20000
|  4> %mdci
|  5>      density none
|  6> end
|  7>
|  8> * xyz 0 6
|  9>  O     -0.31009000     -0.19081600     -0.72187500
| 10>  C     -1.22259200     -1.11125300     -0.56618200
| 11>  C     -2.72862400     -0.32914100      0.49219900
| 12>  C     -2.56121200      0.92897100     -0.05969000
| 13>  C     -3.20411900      1.31373800     -1.35103100
| 14> Fe      1.42219700      0.13144100     -0.02783600
| 15> Cl      1.94345300      2.10044200     -0.85229000
| 16>  C     -1.67112500      1.95590900      0.53732100
| 17> Cl      2.65652300     -1.55147500     -0.70647300
| 18> Cl      1.21646100      0.18418300      2.18054600
| 19>  H     -3.52448800     -0.92714900      0.05053500
| 20>  H     -2.22018600      2.90012600      0.64548400
| 21>  H     -1.24360900      1.67320600      1.49715700
| 22>  H     -0.84645800      2.15855100     -0.16115100
| 23>  H     -3.76963100      2.24294300     -1.20550100
| 24>  H     -2.43278800      1.53869700     -2.09984900
| 25>  H     -3.88232900      0.55163200     -1.73774900
| 26>  C     -2.50477900     -0.57750700      1.97401800
| 27>  H     -3.23854900     -0.00413500      2.55262800
| 28>  H     -2.65146100     -1.63156300      2.21674400
| 29>  H     -1.50802700     -0.28731900      2.31126600
| 30>  C     -0.85920300     -2.28470600      0.32817500
| 31>  H     -1.70085900     -2.96040500      0.49503700
| 32>  H     -0.07576000     -2.82949400     -0.21472500
| 33>  H     -0.43428100     -1.96549100      1.27912500
| 34>  C     -1.88429100     -1.53589900     -1.86877000
| 35>  H     -1.13891300     -2.14080500     -2.39921700
| 36>  H     -2.77451500     -2.14974600     -1.71189500
| 37>  H     -2.11830200     -0.68421400     -2.50570000
| 38> *
| 39>
| 40>
| 41>                          ****END OF INPUT****

CARTESIAN COORDINATES (ANGSTROEM)
---------------------------------
  O     -0.310090   -0.190816   -0.721875
  C     -1.222592   -1.111253   -0.566182
  C     -2.728624   -0.329141    0.492199
  C     -2.561212    0.928971   -0.059690
  C     -3.204119    1.313738   -1.351031
  Fe     1.422197    0.131441   -0.027836
  Cl     1.943453    2.100442   -0.852290
  C     -1.671125    1.955909    0.537321
  Cl     2.656523   -1.551475   -0.706473
  Cl     1.216461    0.184183    2.180546
  H     -3.524488   -0.927149    0.050535
  H     -2.220186    2.900126    0.645484
  H     -1.243609    1.673206    1.497157
  H     -0.846458    2.158551   -0.161151
  H     -3.769631    2.242943   -1.205501
  H     -2.432788    1.538697   -2.099849
  H     -3.882329    0.551632   -1.737749
  C     -2.504779   -0.577507    1.974018
  H     -3.238549   -0.004135    2.552628
  H     -2.651461   -1.631563    2.216744
  H     -1.508027   -0.287319    2.311266
  C     -0.859203   -2.284706    0.328175
  H     -1.700859   -2.960405    0.495037
  H     -0.075760   -2.829494   -0.214725
  H     -0.434281   -1.965491    1.279125
  C     -1.884291   -1.535899   -1.868770
  H     -1.138913   -2.140805   -2.399217
  H     -2.774515   -2.149746   -1.711895
  H     -2.118302   -0.684214   -2.505700

ORBITAL ENERGIES
----------------
                 SPIN UP ORBITALS
  NO   OCC          E(Eh)            E(eV)
   0   1.0000    -261.554617     -7117.2630
   1   1.0000    -104.780253     -2851.2156
   2   1.0000    -104.775930     -2851.0980
   3   1.0000    -104.775427     -2851.0843
   4   1.0000     -32.222507      -876.8190
   5   1.0000     -27.698542      -753.7156
   6   1.0000     -27.698123      -753.7042
   7   1.0000     -27.697906      -753.6983
   8   1.0000     -20.563235      -559.5541
   9   1.0000     -11.392431      -310.0038
  10   1.0000     -11.347161      -308.7720
  11   1.0000     -11.277035      -306.8637
  12   1.0000     -11.274823      -306.8035
  13   1.0000     -11.258427      -306.3574
  14   1.0000     -11.256931      -306.3167
  15   1.0000     -11.251842      -306.1782
  16   1.0000     -11.249126      -306.1043
  17   1.0000     -10.506896      -285.9072
  18   1.0000     -10.502521      -285.7881
  19   1.0000     -10.502066      -285.7757
  20   1.0000      -7.973782      -216.9776
  21   1.0000      -7.972926      -216.9543
  22   1.0000      -7.972893      -216.9534
  23   1.0000      -7.969338      -216.8567
  24   1.0000      -7.968905      -216.8449
  25   1.0000      -7.968623      -216.8373
  26   1.0000      -7.968548      -216.8352
  27   1.0000      -7.968168      -216.8249
  28   1.0000      -7.968099      -216.8230
  29   1.0000      -4.577798      -124.5682
  30   1.0000      -3.190463       -86.8169
  31   1.0000      -3.189730       -86.7970
  32   1.0000      -3.189345       -86.7865
  33   1.0000      -1.406601       -38.2755
  34   1.0000      -1.171880       -31.8885
  35   1.0000      -1.083740       -29.4901
  36   1.0000      -1.051217       -28.6051
  37   1.0000      -1.045573       -28.4515
  38   1.0000      -1.042756       -28.3748
  39   1.0000      -1.040514       -28.3138
  40   1.0000      -0.996065       -27.1043
  41   1.0000      -0.984634       -26.7933
  42   1.0000      -0.927787       -25.2464
  43   1.0000      -0.918605       -24.9965
  44   1.0000      -0.907112       -24.6838
  45   1.0000      -0.907053       -24.6822
  46   1.0000      -0.898112       -24.4389
  47   1.0000      -0.897423       -24.4201
  48   1.0000      -0.789374       -21.4799
  49   1.0000      -0.762633       -20.7523
  50   1.0000      -0.694957       -18.9107
  51   1.0000      -0.688930       -18.7467
  52   1.0000      -0.674685       -18.3591
  53   1.0000      -0.660179       -17.9644
  54   1.0000      -0.649142       -17.6640
  55   1.0000      -0.627067       -17.0634
  56   1.0000      -0.600770       -16.3478
  57   1.0000      -0.593060       -16.1380
  58   1.0000      -0.584627       -15.9085
  59   1.0000      -0.577270       -15.7083
  60   1.0000      -0.571775       -15.5588
  61   1.0000      -0.564385       -15.3577
  62   1.0000      -0.553080       -15.0501
  63   1.0000      -0.549419       -14.9504
  64   1.0000      -0.536822       -14.6077
  65   1.0000      -0.523854       -14.2548
  66   1.0000      -0.516830       -14.0637
  67   1.0000      -0.478077       -13.0091
  68   1.0000      -0.464148       -12.6301
  69   1.0000      -0.456493       -12.4218
  70   1.0000      -0.430384       -11.7113
  71   1.0000      -0.428199       -11.6519
  72   1.0000      -0.426194       -11.5973
  73   1.0000      -0.417193       -11.3524
  74   1.0000      -0.415837       -11.3155
  75   1.0000      -0.415051       -11.2941
  76   1.0000      -0.387408       -10.5419
  77   0.0000       0.008843         0.2406
  78   0.0000       0.019391         0.5277
  79   0.0000       0.021656         0.5893
  80   0.0000       0.023792         0.6474
  81   0.0000       0.031737         0.8636

                 SPIN DOWN ORBITALS
  NO   OCC          E(Eh)            E(eV)
   0   1.0000    -261.551066     -7117.1663
   1   1.0000    -104.778882     -2851.1783
   2   1.0000    -104.774520     -2851.0596
   3   1.0000    -104.773958     -2851.0443
   4   1.0000     -32.060434      -872.4088
   5   1.0000     -27.538454      -749.3594
   6   1.0000     -27.538335      -749.3562
   7   1.0000     -27.537944      -749.3456
   8   1.0000     -20.558344      -559.4210
   9   1.0000     -11.392404      -310.0031
  10   1.0000     -11.347037      -308.7686
  11   1.0000     -11.277052      -306.8642
  12   1.0000     -11.274710      -306.8005
  13   1.0000     -11.258312      -306.3542
  14   1.0000     -11.256971      -306.3178
  15   1.0000     -11.251814      -306.1774
  16   1.0000     -11.249139      -306.1046
  17   1.0000     -10.505421      -285.8670
  18   1.0000     -10.501015      -285.7471
  19   1.0000     -10.500494      -285.7330
  20   1.0000      -7.971290      -216.9098
  21   1.0000      -7.970763      -216.8955
  22   1.0000      -7.970698      -216.8937
  23   1.0000      -7.966982      -216.7926
  24   1.0000      -7.966431      -216.7776
  25   1.0000      -7.966272      -216.7733
  26   1.0000      -7.966179      -216.7707
  27   1.0000      -7.965726      -216.7584
  28   1.0000      -7.965644      -216.7562
  29   1.0000      -4.135484      -112.5323
  30   1.0000      -2.657263       -72.3078
  31   1.0000      -2.657214       -72.3065
  32   1.0000      -2.656326       -72.2823
  33   1.0000      -1.394136       -37.9364
  34   1.0000      -1.171051       -31.8659
  35   1.0000      -1.080959       -29.4144
  36   1.0000      -1.040794       -28.3214
  37   1.0000      -1.036149       -28.1951
  38   1.0000      -1.024678       -27.8829
  39   1.0000      -1.021835       -27.8055
  40   1.0000      -0.995927       -27.1005
  41   1.0000      -0.983846       -26.7718
  42   1.0000      -0.924608       -25.1599
  43   1.0000      -0.802002       -21.8236
  44   1.0000      -0.763641       -20.7797
  45   1.0000      -0.695807       -18.9339
  46   1.0000      -0.688318       -18.7301
  47   1.0000      -0.676116       -18.3981
  48   1.0000      -0.659759       -17.9530
  49   1.0000      -0.648709       -17.6523
  50   1.0000      -0.626591       -17.0504
  51   1.0000      -0.599804       -16.3215
  52   1.0000      -0.593258       -16.1434
  53   1.0000      -0.584478       -15.9044
  54   1.0000      -0.576775       -15.6949
  55   1.0000      -0.571476       -15.5507
  56   1.0000      -0.563917       -15.3450
  57   1.0000      -0.552956       -15.0467
  58   1.0000      -0.548575       -14.9275
  59   1.0000      -0.532149       -14.4805
  60   1.0000      -0.523868       -14.2552
  61   1.0000      -0.507329       -13.8051
  62   1.0000      -0.476765       -12.9734
  63   1.0000      -0.469133       -12.7658
  64   1.0000      -0.465469       -12.6661
  65   1.0000      -0.440548       -11.9879
  66   1.0000      -0.437268       -11.8987
  67   1.0000      -0.435100       -11.8397
  68   1.0000      -0.422903       -11.5078
  69   1.0000      -0.415017       -11.2932
  70   1.0000      -0.401820       -10.9341
  71   1.0000      -0.383363       -10.4318
  72   0.0000       0.008839         0.2405
  73   0.0000       0.019270         0.5244
  74   0.0000       0.021646         0.5890
  75   0.0000       0.023383         0.6363
  76   0.0000       0.031621         0.8605

E(0)                                       ...  -3028.428051379
E(0)                                       ...  -3028.428051379
E(CORR)(strong-pairs)                      ...     -2.874504389
E(CORR)(weak-pairs)                        ...     -0.036481945
E(CORR)(corrected)                         ...     -2.910986334
E(TOT)                                     ...  -3031.339037713
E(CCSD(T))                                 ...  -3031.459232160
FINAL SINGLE POINT ENERGY     -3031.459232159538

DIPOLE MOMENT
-------------
                                X             Y             Z
Electronic contribution:     40.98116       5.44706       1.27366
Nuclear contribution   :    -45.60165      -5.84858      -1.71725
                        -----------------------------------------
Total Dipole Moment    :     -4.62048      -0.40152      -0.44359
                        -----------------------------------------
Magnitude (a.u.)       :      4.65906
Magnitude (Debye)      :     11.84240

Rotational constants in cm-1:     0.019186     0.011288     0.010563
Rotational constants in MHz :   575.175930   338.393267   316.677335

                             ****ORCA TERMINATED NORMALLY****
TOTAL RUN TIME: 0 days 22 hours 2 minutes 12 seconds 830 msec
