                         Program Version 4.1.2  - RELEASE  -
|  1> ! aug-cc-pVTZ aug-cc-pVTZ/C DLPNO-CCSD(T1) TightSCF NormalPNO UNO MiniPrint AutoAux
|  2> %pal nproc 10 end
|  3> %maxcore 20000
|  4> %mdci
|  5>      density none
|  6> end
|  7>
|  8> * xyz 0 6
|  9>  O      0.25292300      0.30289700     -0.82702200
| 10>  C      1.04637500      1.26355400     -0.65563100
| 11>  C      3.08057100      0.07671000      0.44593600
| 12>  C      2.54210600     -0.98211200     -0.19585800
| 13>  C      2.89106200     -1.30189000     -1.62247100
| 14> Fe     -1.46144400     -0.13748700      0.02638600
| 15> Cl     -2.09304900     -1.98387600     -0.93709800
| 16>  C      1.62382700     -1.97707400      0.44825800
| 17> Cl     -2.63264400      1.64462500     -0.47344700
| 18> Cl     -1.13289000     -0.31643400      2.19142900
| 19>  H      3.80319900      0.67908100     -0.10432700
| 20>  H      2.15318900     -2.93233900      0.56854000
| 21>  H      1.25603100     -1.67066400      1.42681900
| 22>  H      0.76287700     -2.18505900     -0.19772700
| 23>  H      3.31616800     -2.31209900     -1.68203800
| 24>  H      1.98939200     -1.30939100     -2.24872400
| 25>  H      3.62025700     -0.60524700     -2.04515800
| 26>  C      2.99379000      0.36218800      1.92189000
| 27>  H      3.82481600     -0.12713300      2.44793500
| 28>  H      3.07885500      1.43312500      2.13079600
| 29>  H      2.06555400      0.00258400      2.37313500
| 30>  C      0.89351800      2.18527400      0.51415300
| 31>  H      1.78111900      2.79813500      0.67421700
| 32>  H      0.05221000      2.84904600      0.26364100
| 33>  H      0.62242600      1.64923900      1.42362800
| 34>  C      1.81672000      1.75765900     -1.84409300
| 35>  H      1.17901700      2.52160500     -2.31323800
| 36>  H      2.75625000      2.23489500     -1.56239300
| 37>  H      1.98089300      0.96649100     -2.57309400
| 38> *
| 39>
| 40>
| 41>                          ****END OF INPUT****

CARTESIAN COORDINATES (ANGSTROEM)
---------------------------------
  O      0.252923    0.302897   -0.827022
  C      1.046375    1.263554   -0.655631
  C      3.080571    0.076710    0.445936
  C      2.542106   -0.982112   -0.195858
  C      2.891062   -1.301890   -1.622471
  Fe    -1.461444   -0.137487    0.026386
  Cl    -2.093049   -1.983876   -0.937098
  C      1.623827   -1.977074    0.448258
  Cl    -2.632644    1.644625   -0.473447
  Cl    -1.132890   -0.316434    2.191429
  H      3.803199    0.679081   -0.104327
  H      2.153189   -2.932339    0.568540
  H      1.256031   -1.670664    1.426819
  H      0.762877   -2.185059   -0.197727
  H      3.316168   -2.312099   -1.682038
  H      1.989392   -1.309391   -2.248724
  H      3.620257   -0.605247   -2.045158
  C      2.993790    0.362188    1.921890
  H      3.824816   -0.127133    2.447935
  H      3.078855    1.433125    2.130796
  H      2.065554    0.002584    2.373135
  C      0.893518    2.185274    0.514153
  H      1.781119    2.798135    0.674217
  H      0.052210    2.849046    0.263641
  H      0.622426    1.649239    1.423628
  C      1.816720    1.757659   -1.844093
  H      1.179017    2.521605   -2.313238
  H      2.756250    2.234895   -1.562393
  H      1.980893    0.966491   -2.573094

ORBITAL ENERGIES
----------------
                 SPIN UP ORBITALS
  NO   OCC          E(Eh)            E(eV)
   0   1.0000    -261.575346     -7117.8270
   1   1.0000    -104.793249     -2851.5693
   2   1.0000    -104.790263     -2851.4880
   3   1.0000    -104.788595     -2851.4426
   4   1.0000     -32.243049      -877.3780
   5   1.0000     -27.719505      -754.2861
   6   1.0000     -27.718400      -754.2560
   7   1.0000     -27.718225      -754.2512
   8   1.0000     -20.616014      -560.9903
   9   1.0000     -11.421746      -310.8015
  10   1.0000     -11.277188      -306.8679
  11   1.0000     -11.271165      -306.7040
  12   1.0000     -11.270336      -306.6814
  13   1.0000     -11.244552      -305.9798
  14   1.0000     -11.243192      -305.9428
  15   1.0000     -11.239041      -305.8299
  16   1.0000     -11.230240      -305.5904
  17   1.0000     -10.519963      -286.2627
  18   1.0000     -10.516949      -286.1807
  19   1.0000     -10.515229      -286.1339
  20   1.0000      -7.986796      -217.3318
  21   1.0000      -7.986041      -217.3112
  22   1.0000      -7.985988      -217.3098
  23   1.0000      -7.983837      -217.2513
  24   1.0000      -7.983041      -217.2296
  25   1.0000      -7.982982      -217.2280
  26   1.0000      -7.982016      -217.2017
  27   1.0000      -7.981353      -217.1837
  28   1.0000      -7.981308      -217.1824
  29   1.0000      -4.597916      -125.1157
  30   1.0000      -3.211026       -87.3765
  31   1.0000      -3.209337       -87.3305
  32   1.0000      -3.209194       -87.3266
  33   1.0000      -1.462038       -39.7841
  34   1.0000      -1.128603       -30.7108
  35   1.0000      -1.100829       -29.9551
  36   1.0000      -1.066368       -29.0174
  37   1.0000      -1.060664       -28.8621
  38   1.0000      -1.058035       -28.7906
  39   1.0000      -1.022561       -27.8253
  40   1.0000      -1.009479       -27.4693
  41   1.0000      -0.959805       -26.1176
  42   1.0000      -0.942130       -25.6366
  43   1.0000      -0.926842       -25.2206
  44   1.0000      -0.926740       -25.2179
  45   1.0000      -0.916080       -24.9278
  46   1.0000      -0.915489       -24.9117
  47   1.0000      -0.898184       -24.4408
  48   1.0000      -0.812643       -22.1131
  49   1.0000      -0.730852       -19.8875
  50   1.0000      -0.711139       -19.3511
  51   1.0000      -0.701660       -19.0931
  52   1.0000      -0.686426       -18.6786
  53   1.0000      -0.656569       -17.8662
  54   1.0000      -0.622737       -16.9455
  55   1.0000      -0.621753       -16.9188
  56   1.0000      -0.604002       -16.4357
  57   1.0000      -0.599679       -16.3181
  58   1.0000      -0.585758       -15.9393
  59   1.0000      -0.578412       -15.7394
  60   1.0000      -0.560769       -15.2593
  61   1.0000      -0.551994       -15.0205
  62   1.0000      -0.549628       -14.9561
  63   1.0000      -0.541079       -14.7235
  64   1.0000      -0.535308       -14.5665
  65   1.0000      -0.527145       -14.3443
  66   1.0000      -0.502443       -13.6722
  67   1.0000      -0.494471       -13.4552
  68   1.0000      -0.476614       -12.9693
  69   1.0000      -0.475627       -12.9425
  70   1.0000      -0.446244       -12.1429
  71   1.0000      -0.440257       -11.9800
  72   1.0000      -0.438534       -11.9331
  73   1.0000      -0.429859       -11.6971
  74   1.0000      -0.428813       -11.6686
  75   1.0000      -0.427722       -11.6389
  76   1.0000      -0.359985        -9.7957
  77   0.0000       0.012709         0.3458
  78   0.0000       0.023577         0.6416
  79   0.0000       0.024214         0.6589
  80   0.0000       0.030615         0.8331
  81   0.0000       0.039337         1.0704

                 SPIN DOWN ORBITALS
  NO   OCC          E(Eh)            E(eV)
   0   1.0000    -261.571770     -7117.7297
   1   1.0000    -104.791768     -2851.5290
   2   1.0000    -104.788715     -2851.4459
   3   1.0000    -104.787042     -2851.4004
   4   1.0000     -32.081056      -872.9699
   5   1.0000     -27.558975      -749.9178
   6   1.0000     -27.558905      -749.9159
   7   1.0000     -27.558787      -749.9127
   8   1.0000     -20.612484      -560.8942
   9   1.0000     -11.421656      -310.7990
  10   1.0000     -11.277080      -306.8650
  11   1.0000     -11.271159      -306.7038
  12   1.0000     -11.270373      -306.6824
  13   1.0000     -11.244469      -305.9776
  14   1.0000     -11.243186      -305.9426
  15   1.0000     -11.239050      -305.8301
  16   1.0000     -11.230252      -305.5907
  17   1.0000     -10.518380      -286.2197
  18   1.0000     -10.515296      -286.1358
  19   1.0000     -10.513579      -286.0890
  20   1.0000      -7.984298      -217.2638
  21   1.0000      -7.983571      -217.2440
  22   1.0000      -7.983527      -217.2428
  23   1.0000      -7.981167      -217.1786
  24   1.0000      -7.980503      -217.1605
  25   1.0000      -7.980409      -217.1580
  26   1.0000      -7.979571      -217.1352
  27   1.0000      -7.978681      -217.1109
  28   1.0000      -7.978600      -217.1087
  29   1.0000      -4.155811      -113.0854
  30   1.0000      -2.677371       -72.8550
  31   1.0000      -2.677326       -72.8537
  32   1.0000      -2.676857       -72.8410
  33   1.0000      -1.453327       -39.5470
  34   1.0000      -1.128273       -30.7019
  35   1.0000      -1.098504       -29.8918
  36   1.0000      -1.050850       -28.5951
  37   1.0000      -1.038334       -28.2545
  38   1.0000      -1.035428       -28.1754
  39   1.0000      -1.021918       -27.8078
  40   1.0000      -1.008899       -27.4535
  41   1.0000      -0.959660       -26.1137
  42   1.0000      -0.898362       -24.4457
  43   1.0000      -0.825251       -22.4562
  44   1.0000      -0.730921       -19.8894
  45   1.0000      -0.713271       -19.4091
  46   1.0000      -0.700812       -19.0701
  47   1.0000      -0.685728       -18.6596
  48   1.0000      -0.656498       -17.8642
  49   1.0000      -0.622651       -16.9432
  50   1.0000      -0.621224       -16.9044
  51   1.0000      -0.603730       -16.4283
  52   1.0000      -0.599611       -16.3162
  53   1.0000      -0.585511       -15.9326
  54   1.0000      -0.577359       -15.7107
  55   1.0000      -0.559809       -15.2332
  56   1.0000      -0.551950       -15.0193
  57   1.0000      -0.547451       -14.8969
  58   1.0000      -0.541078       -14.7235
  59   1.0000      -0.528538       -14.3823
  60   1.0000      -0.522450       -14.2166
  61   1.0000      -0.503838       -13.7101
  62   1.0000      -0.494253       -13.4493
  63   1.0000      -0.484775       -13.1914
  64   1.0000      -0.482544       -13.1307
  65   1.0000      -0.453437       -12.3386
  66   1.0000      -0.450527       -12.2595
  67   1.0000      -0.447631       -12.1807
  68   1.0000      -0.431256       -11.7351
  69   1.0000      -0.429020       -11.6742
  70   1.0000      -0.413113       -11.2414
  71   1.0000      -0.359300        -9.7770
  72   0.0000       0.012694         0.3454
  73   0.0000       0.023553         0.6409
  74   0.0000       0.024181         0.6580
  75   0.0000       0.030552         0.8314
  76   0.0000       0.039224         1.0673

E(0)                                       ...  -3028.460044145
E(0)                                       ...  -3028.460044145
E(CORR)(strong-pairs)                      ...     -2.868760141
E(CORR)(weak-pairs)                        ...     -0.035968792
E(CORR)(corrected)                         ...     -2.904728933
E(TOT)                                     ...  -3031.364773077
E(CCSD(T))                                 ...  -3031.483011279
FINAL SINGLE POINT ENERGY     -3031.483011278546

DIPOLE MOMENT
-------------
                                X             Y             Z
Electronic contribution:    -43.08711      -3.95732       1.91388
Nuclear contribution   :     46.46078       5.26196      -2.55254
                        -----------------------------------------
Total Dipole Moment    :      3.37367       1.30464      -0.63867
                        -----------------------------------------
Magnitude (a.u.)       :      3.67309
Magnitude (Debye)      :      9.33626

Rotational constants in cm-1:     0.018903     0.010902     0.010275
Rotational constants in MHz :   566.708628   326.838064   308.025200

                             ****ORCA TERMINATED NORMALLY****
TOTAL RUN TIME: 0 days 15 hours 37 minutes 33 seconds 632 msec
