                         Program Version 4.1.2  - RELEASE  -
|  1> ! aug-cc-pVTZ aug-cc-pVTZ/C DLPNO-CCSD(T1) TightSCF NormalPNO UNO MiniPrint AutoAux
|  2> %pal nproc 10 end
|  3> %maxcore 20000
|  4> %mdci
|  5>      density none
|  6> end
|  7>
|  8> * xyz 0 6
|  9>  O     -0.33518600     -0.11329000     -0.58602400
| 10>  C     -1.18432900     -1.06579200     -0.52757400
| 11>  C     -3.18532100      0.04426900      0.00748800
| 12>  C     -2.28898300      1.04279600     -0.21705900
| 13>  C     -2.15779700      1.68100700     -1.56734300
| 14> Fe      1.46392900      0.06971700      0.05901900
| 15> Cl      2.08956300      1.98545900     -0.79024200
| 16>  C     -1.56212800      1.74462600      0.89235400
| 17> Cl      2.41244100     -1.73937600     -0.75284500
| 18> Cl      1.40636500      0.04544900      2.25860100
| 19>  H     -3.76458700     -0.30225200     -0.84619900
| 20>  H     -2.22356800      2.52739400      1.28971700
| 21>  H     -1.29311100      1.09011700      1.72263100
| 22>  H     -0.65606200      2.23460500      0.52895600
| 23>  H     -2.52633200      2.71302600     -1.49106400
| 24>  H     -1.11046800      1.73795900     -1.87755600
| 25>  H     -2.74843100      1.17445900     -2.33490200
| 26>  C     -3.68759100     -0.41025900      1.35047300
| 27>  H     -4.61493200      0.12576200      1.59457200
| 28>  H     -3.93159700     -1.47759500      1.35530900
| 29>  H     -2.98014300     -0.21746000      2.16018100
| 30>  C     -1.16150500     -1.98400100      0.65757200
| 31>  H     -2.04847600     -2.61445000      0.72010400
| 32>  H     -0.28668800     -2.63404000      0.50385800
| 33>  H     -0.99707800     -1.44225600      1.58928400
| 34>  C     -1.67168500     -1.62497600     -1.83432800
| 35>  H     -0.85485900     -2.26787500     -2.19463600
| 36>  H     -2.56996400     -2.23454300     -1.72304700
| 37>  H     -1.82061200     -0.84123500     -2.57676500
| 38> *
| 39>
| 40>
| 41>                          ****END OF INPUT****

CARTESIAN COORDINATES (ANGSTROEM)
---------------------------------
  O     -0.335186   -0.113290   -0.586024
  C     -1.184329   -1.065792   -0.527574
  C     -3.185321    0.044269    0.007488
  C     -2.288983    1.042796   -0.217059
  C     -2.157797    1.681007   -1.567343
  Fe     1.463929    0.069717    0.059019
  Cl     2.089563    1.985459   -0.790242
  C     -1.562128    1.744626    0.892354
  Cl     2.412441   -1.739376   -0.752845
  Cl     1.406365    0.045449    2.258601
  H     -3.764587   -0.302252   -0.846199
  H     -2.223568    2.527394    1.289717
  H     -1.293111    1.090117    1.722631
  H     -0.656062    2.234605    0.528956
  H     -2.526332    2.713026   -1.491064
  H     -1.110468    1.737959   -1.877556
  H     -2.748431    1.174459   -2.334902
  C     -3.687591   -0.410259    1.350473
  H     -4.614932    0.125762    1.594572
  H     -3.931597   -1.477595    1.355309
  H     -2.980143   -0.217460    2.160181
  C     -1.161505   -1.984001    0.657572
  H     -2.048476   -2.614450    0.720104
  H     -0.286688   -2.634040    0.503858
  H     -0.997078   -1.442256    1.589284
  C     -1.671685   -1.624976   -1.834328
  H     -0.854859   -2.267875   -2.194636
  H     -2.569964   -2.234543   -1.723047
  H     -1.820612   -0.841235   -2.576765

ORBITAL ENERGIES
----------------
                 SPIN UP ORBITALS
  NO   OCC          E(Eh)            E(eV)
   0   1.0000    -261.567519     -7117.6140
   1   1.0000    -104.786989     -2851.3989
   2   1.0000    -104.786301     -2851.3802
   3   1.0000    -104.785095     -2851.3474
   4   1.0000     -32.235306      -877.1673
   5   1.0000     -27.711624      -754.0716
   6   1.0000     -27.710726      -754.0472
   7   1.0000     -27.710610      -754.0440
   8   1.0000     -20.589704      -560.2743
   9   1.0000     -11.420224      -310.7601
  10   1.0000     -11.297680      -307.4255
  11   1.0000     -11.272697      -306.7457
  12   1.0000     -11.268305      -306.6262
  13   1.0000     -11.254078      -306.2390
  14   1.0000     -11.249990      -306.1278
  15   1.0000     -11.246532      -306.0337
  16   1.0000     -11.242132      -305.9140
  17   1.0000     -10.513645      -286.0908
  18   1.0000     -10.512904      -286.0707
  19   1.0000     -10.511668      -286.0370
  20   1.0000      -7.980503      -217.1605
  21   1.0000      -7.979779      -217.1408
  22   1.0000      -7.979716      -217.1391
  23   1.0000      -7.979674      -217.1380
  24   1.0000      -7.979000      -217.1196
  25   1.0000      -7.978913      -217.1173
  26   1.0000      -7.978459      -217.1049
  27   1.0000      -7.977790      -217.0867
  28   1.0000      -7.977721      -217.0848
  29   1.0000      -4.590491      -124.9136
  30   1.0000      -3.203577       -87.1737
  31   1.0000      -3.202103       -87.1336
  32   1.0000      -3.201813       -87.1258
  33   1.0000      -1.446146       -39.3516
  34   1.0000      -1.143726       -31.1224
  35   1.0000      -1.097713       -29.8703
  36   1.0000      -1.060172       -28.8488
  37   1.0000      -1.054780       -28.7020
  38   1.0000      -1.053016       -28.6540
  39   1.0000      -1.028172       -27.9780
  40   1.0000      -1.008605       -27.4455
  41   1.0000      -0.970782       -26.4163
  42   1.0000      -0.936858       -25.4932
  43   1.0000      -0.919895       -25.0316
  44   1.0000      -0.919746       -25.0276
  45   1.0000      -0.910067       -24.7642
  46   1.0000      -0.909237       -24.7416
  47   1.0000      -0.908624       -24.7249
  48   1.0000      -0.803697       -21.8697
  49   1.0000      -0.742371       -20.2010
  50   1.0000      -0.702556       -19.1175
  51   1.0000      -0.698647       -19.0112
  52   1.0000      -0.690924       -18.8010
  53   1.0000      -0.663997       -18.0683
  54   1.0000      -0.632016       -17.1980
  55   1.0000      -0.620139       -16.8748
  56   1.0000      -0.602776       -16.4024
  57   1.0000      -0.599958       -16.3257
  58   1.0000      -0.583160       -15.8686
  59   1.0000      -0.578055       -15.7297
  60   1.0000      -0.565969       -15.4008
  61   1.0000      -0.564270       -15.3546
  62   1.0000      -0.550469       -14.9790
  63   1.0000      -0.545221       -14.8362
  64   1.0000      -0.537760       -14.6332
  65   1.0000      -0.523285       -14.2393
  66   1.0000      -0.507522       -13.8104
  67   1.0000      -0.494160       -13.4468
  68   1.0000      -0.473712       -12.8904
  69   1.0000      -0.466888       -12.7047
  70   1.0000      -0.441886       -12.0243
  71   1.0000      -0.435799       -11.8587
  72   1.0000      -0.434254       -11.8167
  73   1.0000      -0.426152       -11.5962
  74   1.0000      -0.424241       -11.5442
  75   1.0000      -0.424058       -11.5392
  76   1.0000      -0.363368        -9.8877
  77   0.0000       0.012328         0.3354
  78   0.0000       0.023204         0.6314
  79   0.0000       0.023587         0.6418
  80   0.0000       0.030369         0.8264
  81   0.0000       0.039521         1.0754

                 SPIN DOWN ORBITALS
  NO   OCC          E(Eh)            E(eV)
   0   1.0000    -261.563959     -7117.5172
   1   1.0000    -104.785522     -2851.3590
   2   1.0000    -104.784815     -2851.3398
   3   1.0000    -104.783616     -2851.3071
   4   1.0000     -32.073301      -872.7589
   5   1.0000     -27.551221      -749.7068
   6   1.0000     -27.551188      -749.7059
   7   1.0000     -27.550945      -749.6993
   8   1.0000     -20.585685      -560.1650
   9   1.0000     -11.420042      -310.7551
  10   1.0000     -11.297832      -307.4296
  11   1.0000     -11.272603      -306.7431
  12   1.0000     -11.268292      -306.6258
  13   1.0000     -11.253719      -306.2293
  14   1.0000     -11.250028      -306.1288
  15   1.0000     -11.246504      -306.0329
  16   1.0000     -11.242135      -305.9140
  17   1.0000     -10.512076      -286.0481
  18   1.0000     -10.511314      -286.0274
  19   1.0000     -10.510094      -285.9942
  20   1.0000      -7.977982      -217.0919
  21   1.0000      -7.977310      -217.0736
  22   1.0000      -7.977243      -217.0718
  23   1.0000      -7.977199      -217.0706
  24   1.0000      -7.976568      -217.0535
  25   1.0000      -7.976467      -217.0507
  26   1.0000      -7.976083      -217.0403
  27   1.0000      -7.975268      -217.0181
  28   1.0000      -7.975181      -217.0157
  29   1.0000      -4.148292      -112.8808
  30   1.0000      -2.669903       -72.6517
  31   1.0000      -2.669815       -72.6494
  32   1.0000      -2.669498       -72.6407
  33   1.0000      -1.435930       -39.0736
  34   1.0000      -1.143114       -31.1057
  35   1.0000      -1.095180       -29.8013
  36   1.0000      -1.044994       -28.4357
  37   1.0000      -1.032875       -28.1059
  38   1.0000      -1.031682       -28.0735
  39   1.0000      -1.027628       -27.9632
  40   1.0000      -1.007815       -27.4240
  41   1.0000      -0.970670       -26.4133
  42   1.0000      -0.910200       -24.7678
  43   1.0000      -0.817581       -22.2475
  44   1.0000      -0.742430       -20.2025
  45   1.0000      -0.705607       -19.2005
  46   1.0000      -0.698635       -19.0108
  47   1.0000      -0.689072       -18.7506
  48   1.0000      -0.663998       -18.0683
  49   1.0000      -0.631932       -17.1957
  50   1.0000      -0.619862       -16.8673
  51   1.0000      -0.602464       -16.3939
  52   1.0000      -0.599863       -16.3231
  53   1.0000      -0.582713       -15.8564
  54   1.0000      -0.577523       -15.7152
  55   1.0000      -0.565800       -15.3962
  56   1.0000      -0.564104       -15.3500
  57   1.0000      -0.547522       -14.8988
  58   1.0000      -0.544788       -14.8244
  59   1.0000      -0.537131       -14.6161
  60   1.0000      -0.515480       -14.0269
  61   1.0000      -0.507530       -13.8106
  62   1.0000      -0.492434       -13.3998
  63   1.0000      -0.478366       -13.0170
  64   1.0000      -0.477262       -12.9870
  65   1.0000      -0.448625       -12.2077
  66   1.0000      -0.445737       -12.1291
  67   1.0000      -0.443356       -12.0643
  68   1.0000      -0.428856       -11.6698
  69   1.0000      -0.424127       -11.5411
  70   1.0000      -0.409518       -11.1435
  71   1.0000      -0.362115        -9.8536
  72   0.0000       0.012321         0.3353
  73   0.0000       0.023168         0.6304
  74   0.0000       0.023560         0.6411
  75   0.0000       0.030375         0.8265
  76   0.0000       0.039491         1.0746

E(0)                                       ...  -3028.431992658
E(0)                                       ...  -3028.431992658
E(CORR)(strong-pairs)                      ...     -2.872084719
E(CORR)(weak-pairs)                        ...     -0.036472937
E(CORR)(corrected)                         ...     -2.908557657
E(TOT)                                     ...  -3031.340550315
E(CCSD(T))                                 ...  -3031.459905353
FINAL SINGLE POINT ENERGY     -3031.459905353430

DIPOLE MOMENT
-------------
                                X             Y             Z
Electronic contribution:     42.93592       2.20815       2.18994
Nuclear contribution   :    -46.71774      -3.00042      -2.73475
                        -----------------------------------------
Total Dipole Moment    :     -3.78182      -0.79228      -0.54481
                        -----------------------------------------
Magnitude (a.u.)       :      3.90214
Magnitude (Debye)      :      9.91845

Rotational constants in cm-1:     0.019540     0.011042     0.010387
Rotational constants in MHz :   585.783893   331.036415   311.381571

                             ****ORCA TERMINATED NORMALLY****
TOTAL RUN TIME: 0 days 19 hours 32 minutes 29 seconds 488 msec
