                         Program Version 4.1.2  - RELEASE  -
|  1> ! aug-cc-pVTZ aug-cc-pVTZ/C DLPNO-CCSD(T1) TightSCF NormalPNO UNO MiniPrint AutoAux
|  2> %pal nproc 10 end
|  3> %maxcore 20000
|  4> %mdci
|  5>      density none
|  6> end
|  7>
|  8> * xyz 0 6
|  9>  O     -0.31366200     -0.19586200     -0.71634000
| 10>  C     -1.25943000     -1.10821400     -0.55020500
| 11>  C     -2.70174300     -0.33535500      0.41541500
| 12>  C     -2.49635100      0.95679400     -0.07626200
| 13>  C     -3.05158700      1.40224400     -1.38191900
| 14> Fe      1.40240200      0.12141700     -0.02997300
| 15> Cl      1.89359100      2.12991000     -0.79196900
| 16>  C     -1.63407600      1.94004800      0.61989900
| 17> Cl      2.68006300     -1.52019700     -0.73550300
| 18> Cl      1.19702700      0.11787800      2.18948900
| 19>  H     -3.52716700     -0.86760000     -0.05606900
| 20>  H     -2.28313300      2.74472800      0.99934100
| 21>  H     -1.07400400      1.52514100      1.45537200
| 22>  H     -0.93579700      2.40508100     -0.08642900
| 23>  H     -3.48157700      2.40557200     -1.27473600
| 24>  H     -2.21983300      1.50408000     -2.09383300
| 25>  H     -3.80513800      0.72707100     -1.78923300
| 26>  C     -2.57339200     -0.60433700      1.90888300
| 27>  H     -3.32535100     -0.02083200      2.45219600
| 28>  H     -2.75825200     -1.65825000      2.12407900
| 29>  H     -1.59010000     -0.34532200      2.30578400
| 30>  C     -0.87543600     -2.29468500      0.32415400
| 31>  H     -1.70676600     -2.98670100      0.47869700
| 32>  H     -0.08256900     -2.81761500     -0.22545700
| 33>  H     -0.45883500     -1.98497900      1.28204800
| 34>  C     -1.87768100     -1.55064800     -1.87274700
| 35>  H     -1.09666900     -2.10830700     -2.40194300
| 36>  H     -2.73901700     -2.20912900     -1.73220800
| 37>  H     -2.15234000     -0.70701300     -2.50517300
| 38> *
| 39>
| 40>
| 41>                          ****END OF INPUT****

CARTESIAN COORDINATES (ANGSTROEM)
---------------------------------
  O     -0.313662   -0.195862   -0.716340
  C     -1.259430   -1.108214   -0.550205
  C     -2.701743   -0.335355    0.415415
  C     -2.496351    0.956794   -0.076262
  C     -3.051587    1.402244   -1.381919
  Fe     1.402402    0.121417   -0.029973
  Cl     1.893591    2.129910   -0.791969
  C     -1.634076    1.940048    0.619899
  Cl     2.680063   -1.520197   -0.735503
  Cl     1.197027    0.117878    2.189489
  H     -3.527167   -0.867600   -0.056069
  H     -2.283133    2.744728    0.999341
  H     -1.074004    1.525141    1.455372
  H     -0.935797    2.405081   -0.086429
  H     -3.481577    2.405572   -1.274736
  H     -2.219833    1.504080   -2.093833
  H     -3.805138    0.727071   -1.789233
  C     -2.573392   -0.604337    1.908883
  H     -3.325351   -0.020832    2.452196
  H     -2.758252   -1.658250    2.124079
  H     -1.590100   -0.345322    2.305784
  C     -0.875436   -2.294685    0.324154
  H     -1.706766   -2.986701    0.478697
  H     -0.082569   -2.817615   -0.225457
  H     -0.458835   -1.984979    1.282048
  C     -1.877681   -1.550648   -1.872747
  H     -1.096669   -2.108307   -2.401943
  H     -2.739017   -2.209129   -1.732208
  H     -2.152340   -0.707013   -2.505173

ORBITAL ENERGIES
----------------
                 SPIN UP ORBITALS
  NO   OCC          E(Eh)            E(eV)
   0   1.0000    -261.549206     -7117.1157
   1   1.0000    -104.777052     -2851.1285
   2   1.0000    -104.772936     -2851.0165
   3   1.0000    -104.771103     -2850.9667
   4   1.0000     -32.217113      -876.6722
   5   1.0000     -27.693042      -753.5660
   6   1.0000     -27.692809      -753.5596
   7   1.0000     -27.692554      -753.5527
   8   1.0000     -20.550713      -559.2133
   9   1.0000     -11.378758      -309.6317
  10   1.0000     -11.370868      -309.4171
  11   1.0000     -11.285463      -307.0931
  12   1.0000     -11.280963      -306.9706
  13   1.0000     -11.266075      -306.5655
  14   1.0000     -11.252939      -306.2080
  15   1.0000     -11.252156      -306.1867
  16   1.0000     -11.244303      -305.9730
  17   1.0000     -10.503662      -285.8192
  18   1.0000     -10.499510      -285.7062
  19   1.0000     -10.497713      -285.6573
  20   1.0000      -7.970560      -216.8900
  21   1.0000      -7.969676      -216.8659
  22   1.0000      -7.969640      -216.8649
  23   1.0000      -7.966330      -216.7749
  24   1.0000      -7.965610      -216.7553
  25   1.0000      -7.965525      -216.7529
  26   1.0000      -7.964547      -216.7263
  27   1.0000      -7.963819      -216.7065
  28   1.0000      -7.963741      -216.7044
  29   1.0000      -4.572477      -124.4234
  30   1.0000      -3.185028       -86.6690
  31   1.0000      -3.184528       -86.6554
  32   1.0000      -3.184097       -86.6437
  33   1.0000      -1.390321       -37.8326
  34   1.0000      -1.183292       -32.1990
  35   1.0000      -1.083321       -29.4787
  36   1.0000      -1.047315       -28.4989
  37   1.0000      -1.043778       -28.4027
  38   1.0000      -1.041058       -28.3286
  39   1.0000      -1.038443       -28.2575
  40   1.0000      -1.005084       -27.3497
  41   1.0000      -0.978240       -26.6193
  42   1.0000      -0.931519       -25.3479
  43   1.0000      -0.914379       -24.8815
  44   1.0000      -0.901923       -24.5426
  45   1.0000      -0.901812       -24.5396
  46   1.0000      -0.893428       -24.3114
  47   1.0000      -0.892680       -24.2910
  48   1.0000      -0.787749       -21.4357
  49   1.0000      -0.766452       -20.8562
  50   1.0000      -0.702437       -19.1143
  51   1.0000      -0.690005       -18.7760
  52   1.0000      -0.672056       -18.2876
  53   1.0000      -0.653599       -17.7853
  54   1.0000      -0.648598       -17.6492
  55   1.0000      -0.629407       -17.1270
  56   1.0000      -0.598252       -16.2793
  57   1.0000      -0.597027       -16.2459
  58   1.0000      -0.589977       -16.0541
  59   1.0000      -0.577858       -15.7243
  60   1.0000      -0.575908       -15.6712
  61   1.0000      -0.562200       -15.2982
  62   1.0000      -0.555694       -15.1212
  63   1.0000      -0.546243       -14.8640
  64   1.0000      -0.536456       -14.5977
  65   1.0000      -0.527435       -14.3522
  66   1.0000      -0.511660       -13.9230
  67   1.0000      -0.472381       -12.8542
  68   1.0000      -0.460867       -12.5408
  69   1.0000      -0.451066       -12.2741
  70   1.0000      -0.426484       -11.6052
  71   1.0000      -0.425165       -11.5693
  72   1.0000      -0.423027       -11.5111
  73   1.0000      -0.413881       -11.2623
  74   1.0000      -0.412789       -11.2326
  75   1.0000      -0.411335       -11.1930
  76   1.0000      -0.395567       -10.7639
  77   0.0000       0.006958         0.1893
  78   0.0000       0.014203         0.3865
  79   0.0000       0.019924         0.5422
  80   0.0000       0.020631         0.5614
  81   0.0000       0.030720         0.8359

                 SPIN DOWN ORBITALS
  NO   OCC          E(Eh)            E(eV)
   0   1.0000    -261.545659     -7117.0192
   1   1.0000    -104.775724     -2851.0924
   2   1.0000    -104.771572     -2850.9794
   3   1.0000    -104.769654     -2850.9272
   4   1.0000     -32.055029      -872.2617
   5   1.0000     -27.533100      -749.2137
   6   1.0000     -27.532949      -749.2096
   7   1.0000     -27.532463      -749.1964
   8   1.0000     -20.545337      -559.0670
   9   1.0000     -11.378719      -309.6307
  10   1.0000     -11.370804      -309.4153
  11   1.0000     -11.285472      -307.0933
  12   1.0000     -11.280796      -306.9661
  13   1.0000     -11.266108      -306.5664
  14   1.0000     -11.252957      -306.2085
  15   1.0000     -11.252040      -306.1836
  16   1.0000     -11.244267      -305.9721
  17   1.0000     -10.502230      -285.7802
  18   1.0000     -10.498049      -285.6664
  19   1.0000     -10.496162      -285.6151
  20   1.0000      -7.968080      -216.8225
  21   1.0000      -7.967623      -216.8100
  22   1.0000      -7.967552      -216.8081
  23   1.0000      -7.964021      -216.7120
  24   1.0000      -7.963348      -216.6937
  25   1.0000      -7.963256      -216.6912
  26   1.0000      -7.962110      -216.6600
  27   1.0000      -7.961404      -216.6408
  28   1.0000      -7.961324      -216.6386
  29   1.0000      -4.130155      -112.3872
  30   1.0000      -2.652011       -72.1649
  31   1.0000      -2.651902       -72.1619
  32   1.0000      -2.650995       -72.1373
  33   1.0000      -1.376515       -37.4569
  34   1.0000      -1.182411       -32.1750
  35   1.0000      -1.080653       -29.4061
  36   1.0000      -1.042710       -28.3736
  37   1.0000      -1.032948       -28.1079
  38   1.0000      -1.021384       -27.7933
  39   1.0000      -1.017957       -27.7000
  40   1.0000      -1.004864       -27.3437
  41   1.0000      -0.977415       -26.5968
  42   1.0000      -0.930112       -25.3096
  43   1.0000      -0.797771       -21.7084
  44   1.0000      -0.769792       -20.9471
  45   1.0000      -0.702965       -19.1287
  46   1.0000      -0.689131       -18.7522
  47   1.0000      -0.673383       -18.3237
  48   1.0000      -0.655185       -17.8285
  49   1.0000      -0.647033       -17.6067
  50   1.0000      -0.628696       -17.1077
  51   1.0000      -0.598040       -16.2735
  52   1.0000      -0.596436       -16.2298
  53   1.0000      -0.589871       -16.0512
  54   1.0000      -0.577770       -15.7219
  55   1.0000      -0.575262       -15.6537
  56   1.0000      -0.561508       -15.2794
  57   1.0000      -0.555481       -15.1154
  58   1.0000      -0.545458       -14.8427
  59   1.0000      -0.530877       -14.4459
  60   1.0000      -0.527329       -14.3494
  61   1.0000      -0.503028       -13.6881
  62   1.0000      -0.471358       -12.8263
  63   1.0000      -0.465067       -12.6551
  64   1.0000      -0.459258       -12.4970
  65   1.0000      -0.437051       -11.8928
  66   1.0000      -0.433818       -11.8048
  67   1.0000      -0.431809       -11.7501
  68   1.0000      -0.422559       -11.4984
  69   1.0000      -0.411474       -11.1968
  70   1.0000      -0.398919       -10.8551
  71   1.0000      -0.388999       -10.5852
  72   0.0000       0.006960         0.1894
  73   0.0000       0.013967         0.3801
  74   0.0000       0.019916         0.5419
  75   0.0000       0.020608         0.5608
  76   0.0000       0.030727         0.8361

E(0)                                       ...  -3028.426131010
E(0)                                       ...  -3028.426131010
E(CORR)(strong-pairs)                      ...     -2.873118106
E(CORR)(weak-pairs)                        ...     -0.036099863
E(CORR)(corrected)                         ...     -2.909217969
E(TOT)                                     ...  -3031.335348978
E(CCSD(T))                                 ...  -3031.454895482
FINAL SINGLE POINT ENERGY     -3031.454895482168

DIPOLE MOMENT
-------------
                                X             Y             Z
Electronic contribution:     40.24431       5.60865       1.43069
Nuclear contribution   :    -45.15385      -5.68737      -1.84160
                        -----------------------------------------
Total Dipole Moment    :     -4.90954      -0.07872      -0.41091
                        -----------------------------------------
Magnitude (a.u.)       :      4.92733
Magnitude (Debye)      :     12.52428

Rotational constants in cm-1:     0.019124     0.011481     0.010678
Rotational constants in MHz :   573.333370   344.193289   320.118324

                             ****ORCA TERMINATED NORMALLY****
TOTAL RUN TIME: 0 days 21 hours 17 minutes 18 seconds 931 msec
