                         Program Version 4.1.2  - RELEASE  -
|  1> ! aug-cc-pVTZ aug-cc-pVTZ/C DLPNO-CCSD(T1) TightSCF NormalPNO UNO MiniPrint AutoAux
|  2> %pal nproc 10 end
|  3> %maxcore 20000
|  4> %mdci
|  5>      density none
|  6> end
|  7>
|  8> * xyz 0 6
|  9>  O     -0.35082800     -0.11606600     -0.52653600
| 10>  C     -1.30151800     -1.05694800     -0.45372400
| 11>  C     -2.99479400     -0.04711300     -0.11749900
| 12>  C     -2.17226900      1.08109100     -0.22786400
| 13>  C     -1.98027500      1.77085400     -1.53239800
| 14> Fe      1.42258000      0.04787600      0.04548200
| 15> Cl      1.95636100      2.02382700     -0.78459700
| 16>  C     -1.59702400      1.75769400      0.96726700
| 17> Cl      2.46337800     -1.71524600     -0.76392700
| 18> Cl      1.37825100      0.05379100      2.26215200
| 19>  H     -3.55795600     -0.29213300     -1.01576800
| 20>  H     -2.38024400      2.42220400      1.36492300
| 21>  H     -1.32243800      1.06346700      1.76242900
| 22>  H     -0.72748800      2.36383300      0.70769800
| 23>  H     -2.57740600      2.69516200     -1.48873900
| 24>  H     -0.93507500      2.05740400     -1.67438400
| 25>  H     -2.33555800      1.18331300     -2.38070900
| 26>  C     -3.67793600     -0.44418400      1.17154300
| 27>  H     -4.57194700      0.17363900      1.32448900
| 28>  H     -4.00795400     -1.48595900      1.13293600
| 29>  H     -3.03955000     -0.32444500      2.04910600
| 30>  C     -1.18983100     -1.99851700      0.71934900
| 31>  H     -2.03630300     -2.68368800      0.79302800
| 32>  H     -0.28108600     -2.59010600      0.53882800
| 33>  H     -1.04095900     -1.46659500      1.65976900
| 34>  C     -1.59371700     -1.71720000     -1.78213700
| 35>  H     -0.69276400     -2.28916700     -2.04193900
| 36>  H     -2.44674500     -2.39871700     -1.72958800
| 37>  H     -1.74861900     -0.97886800     -2.57123800
| 38> *
| 39>
| 40>
| 41>                          ****END OF INPUT****

CARTESIAN COORDINATES (ANGSTROEM)
---------------------------------
  O     -0.350828   -0.116066   -0.526536
  C     -1.301518   -1.056948   -0.453724
  C     -2.994794   -0.047113   -0.117499
  C     -2.172269    1.081091   -0.227864
  C     -1.980275    1.770854   -1.532398
  Fe     1.422580    0.047876    0.045482
  Cl     1.956361    2.023827   -0.784597
  C     -1.597024    1.757694    0.967267
  Cl     2.463378   -1.715246   -0.763927
  Cl     1.378251    0.053791    2.262152
  H     -3.557956   -0.292133   -1.015768
  H     -2.380244    2.422204    1.364923
  H     -1.322438    1.063467    1.762429
  H     -0.727488    2.363833    0.707698
  H     -2.577406    2.695162   -1.488739
  H     -0.935075    2.057404   -1.674384
  H     -2.335558    1.183313   -2.380709
  C     -3.677936   -0.444184    1.171543
  H     -4.571947    0.173639    1.324489
  H     -4.007954   -1.485959    1.132936
  H     -3.039550   -0.324445    2.049106
  C     -1.189831   -1.998517    0.719349
  H     -2.036303   -2.683688    0.793028
  H     -0.281086   -2.590106    0.538828
  H     -1.040959   -1.466595    1.659769
  C     -1.593717   -1.717200   -1.782137
  H     -0.692764   -2.289167   -2.041939
  H     -2.446745   -2.398717   -1.729588
  H     -1.748619   -0.978868   -2.571238

ORBITAL ENERGIES
----------------
                 SPIN UP ORBITALS
  NO   OCC          E(Eh)            E(eV)
   0   1.0000    -261.552401     -7117.2027
   1   1.0000    -104.777213     -2851.1329
   2   1.0000    -104.777055     -2851.1286
   3   1.0000    -104.775993     -2851.0997
   4   1.0000     -32.220290      -876.7587
   5   1.0000     -27.696255      -753.6534
   6   1.0000     -27.695965      -753.6455
   7   1.0000     -27.695734      -753.6392
   8   1.0000     -20.555887      -559.3541
   9   1.0000     -11.389646      -309.9280
  10   1.0000     -11.365406      -309.2684
  11   1.0000     -11.276354      -306.8452
  12   1.0000     -11.268209      -306.6236
  13   1.0000     -11.264533      -306.5235
  14   1.0000     -11.260764      -306.4210
  15   1.0000     -11.255926      -306.2893
  16   1.0000     -11.251494      -306.1687
  17   1.0000     -10.503719      -285.8207
  18   1.0000     -10.503649      -285.8188
  19   1.0000     -10.502533      -285.7884
  20   1.0000      -7.970538      -216.8894
  21   1.0000      -7.970532      -216.8892
  22   1.0000      -7.969817      -216.8697
  23   1.0000      -7.969728      -216.8673
  24   1.0000      -7.969700      -216.8666
  25   1.0000      -7.969649      -216.8652
  26   1.0000      -7.969362      -216.8574
  27   1.0000      -7.968637      -216.8376
  28   1.0000      -7.968552      -216.8353
  29   1.0000      -4.575746      -124.5124
  30   1.0000      -3.188453       -86.7622
  31   1.0000      -3.187795       -86.7443
  32   1.0000      -3.187245       -86.7293
  33   1.0000      -1.398475       -38.0544
  34   1.0000      -1.172070       -31.8937
  35   1.0000      -1.087374       -29.5889
  36   1.0000      -1.049302       -28.5530
  37   1.0000      -1.043686       -28.4001
  38   1.0000      -1.042372       -28.3644
  39   1.0000      -1.040244       -28.3065
  40   1.0000      -1.001307       -27.2469
  41   1.0000      -0.984456       -26.7884
  42   1.0000      -0.932778       -25.3822
  43   1.0000      -0.915588       -24.9144
  44   1.0000      -0.905378       -24.6366
  45   1.0000      -0.905330       -24.6353
  46   1.0000      -0.896522       -24.3956
  47   1.0000      -0.896035       -24.3823
  48   1.0000      -0.786167       -21.3927
  49   1.0000      -0.762570       -20.7506
  50   1.0000      -0.696428       -18.9508
  51   1.0000      -0.694109       -18.8877
  52   1.0000      -0.676854       -18.4181
  53   1.0000      -0.655184       -17.8285
  54   1.0000      -0.643448       -17.5091
  55   1.0000      -0.623867       -16.9763
  56   1.0000      -0.600537       -16.3414
  57   1.0000      -0.592604       -16.1256
  58   1.0000      -0.588210       -16.0060
  59   1.0000      -0.583497       -15.8778
  60   1.0000      -0.573348       -15.6016
  61   1.0000      -0.565330       -15.3834
  62   1.0000      -0.555727       -15.1221
  63   1.0000      -0.548949       -14.9377
  64   1.0000      -0.539378       -14.6772
  65   1.0000      -0.530243       -14.4287
  66   1.0000      -0.510946       -13.9035
  67   1.0000      -0.480701       -13.0805
  68   1.0000      -0.464593       -12.6422
  69   1.0000      -0.452964       -12.3258
  70   1.0000      -0.431972       -11.7546
  71   1.0000      -0.427321       -11.6280
  72   1.0000      -0.424734       -11.5576
  73   1.0000      -0.417937       -11.3726
  74   1.0000      -0.415664       -11.3108
  75   1.0000      -0.414751       -11.2860
  76   1.0000      -0.382491       -10.4081
  77   0.0000       0.009360         0.2547
  78   0.0000       0.020186         0.5493
  79   0.0000       0.022254         0.6056
  80   0.0000       0.030317         0.8250
  81   0.0000       0.037929         1.0321

                 SPIN DOWN ORBITALS
  NO   OCC          E(Eh)            E(eV)
   0   1.0000    -261.548854     -7117.1061
   1   1.0000    -104.775864     -2851.0962
   2   1.0000    -104.775670     -2851.0909
   3   1.0000    -104.774561     -2851.0607
   4   1.0000     -32.058266      -872.3498
   5   1.0000     -27.536301      -749.3009
   6   1.0000     -27.536163      -749.2971
   7   1.0000     -27.535735      -749.2854
   8   1.0000     -20.550540      -559.2086
   9   1.0000     -11.389628      -309.9275
  10   1.0000     -11.365411      -309.2685
  11   1.0000     -11.275960      -306.8345
  12   1.0000     -11.268195      -306.6232
  13   1.0000     -11.264549      -306.5240
  14   1.0000     -11.260805      -306.4221
  15   1.0000     -11.255833      -306.2868
  16   1.0000     -11.251454      -306.1676
  17   1.0000     -10.502274      -285.7814
  18   1.0000     -10.502160      -285.7783
  19   1.0000     -10.500999      -285.7467
  20   1.0000      -7.968244      -216.8269
  21   1.0000      -7.968044      -216.8215
  22   1.0000      -7.967582      -216.8089
  23   1.0000      -7.967494      -216.8065
  24   1.0000      -7.967490      -216.8064
  25   1.0000      -7.967420      -216.8045
  26   1.0000      -7.966941      -216.7915
  27   1.0000      -7.966254      -216.7728
  28   1.0000      -7.966176      -216.7707
  29   1.0000      -4.133537      -112.4793
  30   1.0000      -2.655301       -72.2544
  31   1.0000      -2.655215       -72.2521
  32   1.0000      -2.654687       -72.2377
  33   1.0000      -1.384798       -37.6823
  34   1.0000      -1.170795       -31.8590
  35   1.0000      -1.084657       -29.5150
  36   1.0000      -1.039377       -28.2829
  37   1.0000      -1.034770       -28.1575
  38   1.0000      -1.023457       -27.8497
  39   1.0000      -1.022259       -27.8171
  40   1.0000      -1.000891       -27.2356
  41   1.0000      -0.983966       -26.7751
  42   1.0000      -0.928948       -25.2780
  43   1.0000      -0.798258       -21.7217
  44   1.0000      -0.763678       -20.7807
  45   1.0000      -0.695936       -18.9374
  46   1.0000      -0.694359       -18.8945
  47   1.0000      -0.678697       -18.4683
  48   1.0000      -0.654859       -17.8196
  49   1.0000      -0.642877       -17.4936
  50   1.0000      -0.623913       -16.9775
  51   1.0000      -0.599570       -16.3151
  52   1.0000      -0.592395       -16.1199
  53   1.0000      -0.588068       -16.0022
  54   1.0000      -0.583146       -15.8682
  55   1.0000      -0.573164       -15.5966
  56   1.0000      -0.565324       -15.3833
  57   1.0000      -0.555054       -15.1038
  58   1.0000      -0.548349       -14.9213
  59   1.0000      -0.534377       -14.5411
  60   1.0000      -0.529303       -14.4031
  61   1.0000      -0.505148       -13.7458
  62   1.0000      -0.477066       -12.9816
  63   1.0000      -0.468319       -12.7436
  64   1.0000      -0.463682       -12.6174
  65   1.0000      -0.438918       -11.9436
  66   1.0000      -0.436145       -11.8681
  67   1.0000      -0.434408       -11.8208
  68   1.0000      -0.423322       -11.5192
  69   1.0000      -0.413861       -11.2617
  70   1.0000      -0.401724       -10.9315
  71   1.0000      -0.380280       -10.3479
  72   0.0000       0.009361         0.2547
  73   0.0000       0.020127         0.5477
  74   0.0000       0.022235         0.6050
  75   0.0000       0.030354         0.8260
  76   0.0000       0.037829         1.0294

E(0)                                       ...  -3028.418931526
E(0)                                       ...  -3028.418931526
E(CORR)(strong-pairs)                      ...     -2.872746449
E(CORR)(weak-pairs)                        ...     -0.035438258
E(CORR)(corrected)                         ...     -2.908184707
E(TOT)                                     ...  -3031.327116233
E(CCSD(T))                                 ...  -3031.446656090
FINAL SINGLE POINT ENERGY     -3031.446656089894

DIPOLE MOMENT
-------------
                                X             Y             Z
Electronic contribution:     41.20094       3.11004       2.19014
Nuclear contribution   :    -45.71501      -3.13541      -2.67132
                        -----------------------------------------
Total Dipole Moment    :     -4.51407      -0.02537      -0.48118
                        -----------------------------------------
Magnitude (a.u.)       :      4.53971
Magnitude (Debye)      :     11.53903

Rotational constants in cm-1:     0.019410     0.011487     0.010618
Rotational constants in MHz :   581.892449   344.357427   318.315198

                             ****ORCA TERMINATED NORMALLY****
TOTAL RUN TIME: 0 days 22 hours 23 minutes 16 seconds 515 msec
