                         Program Version 4.1.2  - RELEASE  -
|  1> ! aug-cc-pVTZ aug-cc-pVTZ/C DLPNO-CCSD(T1) TightSCF NormalPNO UNO MiniPrint AutoAux
|  2> %pal nproc 10 end
|  3> %maxcore 20000
|  4> %mdci
|  5>      density none
|  6> end
|  7>
|  8> * xyz 0 6
|  9>  O     -0.29690100     -0.20735700     -0.71029900
| 10>  C     -1.10527800     -1.16889200     -0.60155800
| 11>  C     -3.21927000      0.02831800      0.17317900
| 12>  C     -2.40840300      1.03699700     -0.21723000
| 13>  C     -2.42345400      1.55488100     -1.62677000
| 14> Fe      1.47228900      0.09895400      0.05527200
| 15> Cl      2.10464600      1.98259900     -0.83995100
| 16>  C     -1.56093700      1.83360200      0.73198300
| 17> Cl      2.51508800     -1.70428000     -0.63229000
| 18> Cl      1.31043200      0.14981500      2.24423800
| 19>  H     -3.87036700     -0.40940600     -0.58260300
| 20>  H     -2.12867000      2.71717400      1.05563600
| 21>  H     -1.26693400      1.28469700      1.62732900
| 22>  H     -0.65750300      2.20502600      0.23960200
| 23>  H     -2.70735600      2.61530400     -1.61844100
| 24>  H     -1.42234600      1.50302200     -2.07004800
| 25>  H     -3.13578500      1.02313800     -2.26383000
| 26>  C     -3.50233700     -0.39705100      1.58762500
| 27>  H     -4.41763000      0.09274900      1.94732500
| 28>  H     -3.67640900     -1.47583900      1.66180000
| 29>  H     -2.70083800     -0.13285000      2.28193700
| 30>  C     -1.04951000     -2.06806600      0.59359300
| 31>  H     -1.94529700     -2.68066700      0.69566000
| 32>  H     -0.19090000     -2.73581300      0.42425500
| 33>  H     -0.84882300     -1.51151600      1.50948100
| 34>  C     -1.75249100     -1.68389900     -1.85239100
| 35>  H     -1.02698200     -2.38672000     -2.28909800
| 36>  H     -2.67559200     -2.22934500     -1.65200400
| 37>  H     -1.91561800     -0.88654000     -2.57621600
| 38> *
| 39>
| 40>
| 41>                          ****END OF INPUT****

CARTESIAN COORDINATES (ANGSTROEM)
---------------------------------
  O     -0.296901   -0.207357   -0.710299
  C     -1.105278   -1.168892   -0.601558
  C     -3.219270    0.028318    0.173179
  C     -2.408403    1.036997   -0.217230
  C     -2.423454    1.554881   -1.626770
  Fe     1.472289    0.098954    0.055272
  Cl     2.104646    1.982599   -0.839951
  C     -1.560937    1.833602    0.731983
  Cl     2.515088   -1.704280   -0.632290
  Cl     1.310432    0.149815    2.244238
  H     -3.870367   -0.409406   -0.582603
  H     -2.128670    2.717174    1.055636
  H     -1.266934    1.284697    1.627329
  H     -0.657503    2.205026    0.239602
  H     -2.707356    2.615304   -1.618441
  H     -1.422346    1.503022   -2.070048
  H     -3.135785    1.023138   -2.263830
  C     -3.502337   -0.397051    1.587625
  H     -4.417630    0.092749    1.947325
  H     -3.676409   -1.475839    1.661800
  H     -2.700838   -0.132850    2.281937
  C     -1.049510   -2.068066    0.593593
  H     -1.945297   -2.680667    0.695660
  H     -0.190900   -2.735813    0.424255
  H     -0.848823   -1.511516    1.509481
  C     -1.752491   -1.683899   -1.852391
  H     -1.026982   -2.386720   -2.289098
  H     -2.675592   -2.229345   -1.652004
  H     -1.915618   -0.886540   -2.576216

ORBITAL ENERGIES
----------------
                 SPIN UP ORBITALS
  NO   OCC          E(Eh)            E(eV)
   0   1.0000    -261.573830     -7117.7858
   1   1.0000    -104.791449     -2851.5203
   2   1.0000    -104.789548     -2851.4686
   3   1.0000    -104.788254     -2851.4333
   4   1.0000     -32.241536      -877.3368
   5   1.0000     -27.717983      -754.2447
   6   1.0000     -27.716899      -754.2152
   7   1.0000     -27.716744      -754.2110
   8   1.0000     -20.608839      -560.7950
   9   1.0000     -11.422808      -310.8304
  10   1.0000     -11.276763      -306.8563
  11   1.0000     -11.275537      -306.8229
  12   1.0000     -11.271645      -306.7171
  13   1.0000     -11.245865      -306.0156
  14   1.0000     -11.244104      -305.9676
  15   1.0000     -11.241281      -305.8908
  16   1.0000     -11.233938      -305.6910
  17   1.0000     -10.518140      -286.2131
  18   1.0000     -10.516199      -286.1603
  19   1.0000     -10.514859      -286.1239
  20   1.0000      -7.984979      -217.2823
  21   1.0000      -7.984220      -217.2617
  22   1.0000      -7.984172      -217.2604
  23   1.0000      -7.983091      -217.2309
  24   1.0000      -7.982293      -217.2092
  25   1.0000      -7.982213      -217.2070
  26   1.0000      -7.981647      -217.1917
  27   1.0000      -7.980983      -217.1736
  28   1.0000      -7.980929      -217.1721
  29   1.0000      -4.596501      -125.0772
  30   1.0000      -3.209658       -87.3392
  31   1.0000      -3.207941       -87.2925
  32   1.0000      -3.207776       -87.2880
  33   1.0000      -1.459974       -39.7279
  34   1.0000      -1.131805       -30.7980
  35   1.0000      -1.100809       -29.9545
  36   1.0000      -1.064800       -28.9747
  37   1.0000      -1.059326       -28.8257
  38   1.0000      -1.057117       -28.7656
  39   1.0000      -1.023392       -27.8479
  40   1.0000      -1.011584       -27.5266
  41   1.0000      -0.962296       -26.1854
  42   1.0000      -0.941426       -25.6175
  43   1.0000      -0.925592       -25.1866
  44   1.0000      -0.925437       -25.1824
  45   1.0000      -0.914642       -24.8887
  46   1.0000      -0.914508       -24.8850
  47   1.0000      -0.900898       -24.5147
  48   1.0000      -0.811017       -22.0689
  49   1.0000      -0.733272       -19.9533
  50   1.0000      -0.709673       -19.3112
  51   1.0000      -0.701942       -19.1008
  52   1.0000      -0.690517       -18.7899
  53   1.0000      -0.658040       -17.9062
  54   1.0000      -0.625244       -17.0138
  55   1.0000      -0.621260       -16.9053
  56   1.0000      -0.602641       -16.3987
  57   1.0000      -0.600986       -16.3537
  58   1.0000      -0.585225       -15.9248
  59   1.0000      -0.579734       -15.7754
  60   1.0000      -0.559886       -15.2353
  61   1.0000      -0.557672       -15.1750
  62   1.0000      -0.553707       -15.0671
  63   1.0000      -0.540690       -14.7129
  64   1.0000      -0.532711       -14.4958
  65   1.0000      -0.527977       -14.3670
  66   1.0000      -0.500748       -13.6260
  67   1.0000      -0.497040       -13.5252
  68   1.0000      -0.476624       -12.9696
  69   1.0000      -0.473271       -12.8784
  70   1.0000      -0.445406       -12.1201
  71   1.0000      -0.439150       -11.9499
  72   1.0000      -0.437742       -11.9116
  73   1.0000      -0.429205       -11.6793
  74   1.0000      -0.427554       -11.6343
  75   1.0000      -0.427294       -11.6273
  76   1.0000      -0.360190        -9.8013
  77   0.0000       0.012807         0.3485
  78   0.0000       0.023726         0.6456
  79   0.0000       0.024138         0.6568
  80   0.0000       0.030443         0.8284
  81   0.0000       0.039569         1.0767

                 SPIN DOWN ORBITALS
  NO   OCC          E(Eh)            E(eV)
   0   1.0000    -261.570260     -7117.6886
   1   1.0000    -104.789956     -2851.4797
   2   1.0000    -104.788021     -2851.4270
   3   1.0000    -104.786723     -2851.3917
   4   1.0000     -32.079550      -872.9289
   5   1.0000     -27.557482      -749.8772
   6   1.0000     -27.557403      -749.8751
   7   1.0000     -27.557250      -749.8709
   8   1.0000     -20.605268      -560.6978
   9   1.0000     -11.422646      -310.8260
  10   1.0000     -11.276663      -306.8536
  11   1.0000     -11.275636      -306.8257
  12   1.0000     -11.271642      -306.7170
  13   1.0000     -11.245686      -306.0107
  14   1.0000     -11.244116      -305.9680
  15   1.0000     -11.241263      -305.8903
  16   1.0000     -11.233944      -305.6912
  17   1.0000     -10.516545      -286.1697
  18   1.0000     -10.514566      -286.1159
  19   1.0000     -10.513232      -286.0796
  20   1.0000      -7.982461      -217.2138
  21   1.0000      -7.981735      -217.1941
  22   1.0000      -7.981682      -217.1926
  23   1.0000      -7.980432      -217.1586
  24   1.0000      -7.979797      -217.1413
  25   1.0000      -7.979694      -217.1385
  26   1.0000      -7.979223      -217.1257
  27   1.0000      -7.978352      -217.1020
  28   1.0000      -7.978271      -217.0998
  29   1.0000      -4.154366      -113.0460
  30   1.0000      -2.675926       -72.8157
  31   1.0000      -2.675865       -72.8140
  32   1.0000      -2.675496       -72.8040
  33   1.0000      -1.451027       -39.4844
  34   1.0000      -1.131433       -30.7878
  35   1.0000      -1.098423       -29.8896
  36   1.0000      -1.049313       -28.5533
  37   1.0000      -1.036891       -28.2152
  38   1.0000      -1.034915       -28.1615
  39   1.0000      -1.022857       -27.8334
  40   1.0000      -1.010915       -27.5084
  41   1.0000      -0.962133       -26.1810
  42   1.0000      -0.901194       -24.5227
  43   1.0000      -0.824158       -22.4265
  44   1.0000      -0.733329       -19.9549
  45   1.0000      -0.712178       -19.3793
  46   1.0000      -0.701134       -19.0788
  47   1.0000      -0.689631       -18.7658
  48   1.0000      -0.658007       -17.9053
  49   1.0000      -0.625103       -17.0099
  50   1.0000      -0.620858       -16.8944
  51   1.0000      -0.602435       -16.3931
  52   1.0000      -0.600970       -16.3532
  53   1.0000      -0.584866       -15.9150
  54   1.0000      -0.579039       -15.7565
  55   1.0000      -0.559404       -15.2221
  56   1.0000      -0.557254       -15.1637
  57   1.0000      -0.551389       -15.0040
  58   1.0000      -0.540653       -14.7119
  59   1.0000      -0.530435       -14.4339
  60   1.0000      -0.519988       -14.1496
  61   1.0000      -0.501149       -13.6370
  62   1.0000      -0.496876       -13.5207
  63   1.0000      -0.483100       -13.1458
  64   1.0000      -0.481743       -13.1089
  65   1.0000      -0.452512       -12.3135
  66   1.0000      -0.449340       -12.2272
  67   1.0000      -0.446746       -12.1566
  68   1.0000      -0.430805       -11.7228
  69   1.0000      -0.428144       -11.6504
  70   1.0000      -0.412349       -11.2206
  71   1.0000      -0.359312        -9.7774
  72   0.0000       0.012795         0.3482
  73   0.0000       0.023700         0.6449
  74   0.0000       0.024108         0.6560
  75   0.0000       0.030410         0.8275
  76   0.0000       0.039487         1.0745

E(0)                                       ...  -3028.451494522
E(0)                                       ...  -3028.451494522
E(CORR)(strong-pairs)                      ...     -2.869476096
E(CORR)(weak-pairs)                        ...     -0.036001543
E(CORR)(corrected)                         ...     -2.905477638
E(TOT)                                     ...  -3031.356972160
E(CCSD(T))                                 ...  -3031.475394571
FINAL SINGLE POINT ENERGY     -3031.475394570656

DIPOLE MOMENT
-------------
                                X             Y             Z
Electronic contribution:     43.44723       2.74365       2.22907
Nuclear contribution   :    -46.93233      -3.85601      -2.82926
                        -----------------------------------------
Total Dipole Moment    :     -3.48509      -1.11237      -0.60018
                        -----------------------------------------
Magnitude (a.u.)       :      3.70721
Magnitude (Debye)      :      9.42299

Rotational constants in cm-1:     0.019229     0.010862     0.010238
Rotational constants in MHz :   576.475781   325.634963   306.927436

                             ****ORCA TERMINATED NORMALLY****
TOTAL RUN TIME: 0 days 18 hours 14 minutes 54 seconds 384 msec
