                         Program Version 4.1.2  - RELEASE  -
|  1> ! aug-cc-pVTZ aug-cc-pVTZ/C DLPNO-CCSD(T1) TightSCF NormalPNO UNO MiniPrint AutoAux
|  2> %pal nproc 10 end
|  3> %maxcore 20000
|  4> %mdci
|  5>      density none
|  6> end
|  7>
|  8> * xyz 0 6
|  9>  O     -0.31740800     -0.16275700     -0.73185200
| 10>  C     -1.21924500     -1.08600600     -0.60115900
| 11>  C     -2.86603400     -0.21991600      0.37248600
| 12>  C     -2.44982500      0.99174700     -0.12359900
| 13>  C     -2.83461400      1.47207400     -1.48415400
| 14> Fe      1.41842200      0.10807900      0.00338700
| 15> Cl      2.01360200      2.07209800     -0.76801500
| 16>  C     -1.58075500      1.92613600      0.64518100
| 17> Cl      2.59340000     -1.60238600     -0.71283800
| 18> Cl      1.19439000      0.08795600      2.20967000
| 19>  H     -3.63101800     -0.73846900     -0.20204400
| 20>  H     -2.21641300      2.74351800      1.01788300
| 21>  H     -1.08713200      1.46784700      1.50041300
| 22>  H     -0.82421800      2.37983700     -0.00324700
| 23>  H     -3.22284400      2.49523000     -1.40566700
| 24>  H     -1.93849700      1.53057500     -2.11585400
| 25>  H     -3.59014400      0.84879800     -1.96596700
| 26>  C     -2.84022000     -0.55249300      1.84895400
| 27>  H     -3.63745300      0.00187800      2.35981000
| 28>  H     -3.02596600     -1.61521800      2.01875200
| 29>  H     -1.89509100     -0.29203300      2.33041100
| 30>  C     -0.93958000     -2.20648200      0.37528500
| 31>  H     -1.79345200     -2.87448200      0.50099000
| 32>  H     -0.11469500     -2.77743300     -0.07363200
| 33>  H     -0.59215600     -1.84096100      1.34072600
| 34>  C     -1.85148700     -1.54122400     -1.90200800
| 35>  H     -1.08390000     -2.14468000     -2.40383300
| 36>  H     -2.73228500     -2.16758200     -1.74588800
| 37>  H     -2.08755200     -0.70820600     -2.56190200
| 38> *
| 39>
| 40>
| 41>                          ****END OF INPUT****

CARTESIAN COORDINATES (ANGSTROEM)
---------------------------------
  O     -0.317408   -0.162757   -0.731852
  C     -1.219245   -1.086006   -0.601159
  C     -2.866034   -0.219916    0.372486
  C     -2.449825    0.991747   -0.123599
  C     -2.834614    1.472074   -1.484154
  Fe     1.418422    0.108079    0.003387
  Cl     2.013602    2.072098   -0.768015
  C     -1.580755    1.926136    0.645181
  Cl     2.593400   -1.602386   -0.712838
  Cl     1.194390    0.087956    2.209670
  H     -3.631018   -0.738469   -0.202044
  H     -2.216413    2.743518    1.017883
  H     -1.087132    1.467847    1.500413
  H     -0.824218    2.379837   -0.003247
  H     -3.222844    2.495230   -1.405667
  H     -1.938497    1.530575   -2.115854
  H     -3.590144    0.848798   -1.965967
  C     -2.840220   -0.552493    1.848954
  H     -3.637453    0.001878    2.359810
  H     -3.025966   -1.615218    2.018752
  H     -1.895091   -0.292033    2.330411
  C     -0.939580   -2.206482    0.375285
  H     -1.793452   -2.874482    0.500990
  H     -0.114695   -2.777433   -0.073632
  H     -0.592156   -1.840961    1.340726
  C     -1.851487   -1.541224   -1.902008
  H     -1.083900   -2.144680   -2.403833
  H     -2.732285   -2.167582   -1.745888
  H     -2.087552   -0.708206   -2.561902

ORBITAL ENERGIES
----------------
                 SPIN UP ORBITALS
  NO   OCC          E(Eh)            E(eV)
   0   1.0000    -261.559232     -7117.3886
   1   1.0000    -104.782937     -2851.2887
   2   1.0000    -104.778777     -2851.1755
   3   1.0000    -104.778633     -2851.1715
   4   1.0000     -32.227089      -876.9437
   5   1.0000     -27.703194      -753.8422
   6   1.0000     -27.702658      -753.8277
   7   1.0000     -27.702461      -753.8223
   8   1.0000     -20.572318      -559.8012
   9   1.0000     -11.402995      -310.2913
  10   1.0000     -11.330192      -308.3102
  11   1.0000     -11.268613      -306.6346
  12   1.0000     -11.266886      -306.5876
  13   1.0000     -11.263320      -306.4905
  14   1.0000     -11.256256      -306.2983
  15   1.0000     -11.250854      -306.1513
  16   1.0000     -11.250480      -306.1411
  17   1.0000     -10.509577      -285.9801
  18   1.0000     -10.505373      -285.8657
  19   1.0000     -10.505265      -285.8628
  20   1.0000      -7.976455      -217.0504
  21   1.0000      -7.975610      -217.0274
  22   1.0000      -7.975576      -217.0265
  23   1.0000      -7.972180      -216.9341
  24   1.0000      -7.972122      -216.9325
  25   1.0000      -7.971484      -216.9151
  26   1.0000      -7.971414      -216.9132
  27   1.0000      -7.971362      -216.9118
  28   1.0000      -7.971292      -216.9099
  29   1.0000      -4.582294      -124.6906
  30   1.0000      -3.195035       -86.9413
  31   1.0000      -3.194143       -86.9170
  32   1.0000      -3.193787       -86.9074
  33   1.0000      -1.418501       -38.5994
  34   1.0000      -1.163060       -31.6485
  35   1.0000      -1.087391       -29.5894
  36   1.0000      -1.054225       -28.6869
  37   1.0000      -1.048566       -28.5329
  38   1.0000      -1.046062       -28.4648
  39   1.0000      -1.038044       -28.2466
  40   1.0000      -0.994833       -27.0708
  41   1.0000      -0.983743       -26.7690
  42   1.0000      -0.928981       -25.2789
  43   1.0000      -0.918876       -25.0039
  44   1.0000      -0.911553       -24.8046
  45   1.0000      -0.911457       -24.8020
  46   1.0000      -0.902199       -24.5501
  47   1.0000      -0.901515       -24.5315
  48   1.0000      -0.792764       -21.5722
  49   1.0000      -0.755962       -20.5708
  50   1.0000      -0.692672       -18.8486
  51   1.0000      -0.690441       -18.7879
  52   1.0000      -0.680381       -18.5141
  53   1.0000      -0.664669       -18.0866
  54   1.0000      -0.644132       -17.5277
  55   1.0000      -0.623539       -16.9674
  56   1.0000      -0.602934       -16.4067
  57   1.0000      -0.594728       -16.1834
  58   1.0000      -0.583674       -15.8826
  59   1.0000      -0.573868       -15.6157
  60   1.0000      -0.570260       -15.5176
  61   1.0000      -0.560935       -15.2638
  62   1.0000      -0.555200       -15.1077
  63   1.0000      -0.549433       -14.9508
  64   1.0000      -0.542713       -14.7680
  65   1.0000      -0.520531       -14.1644
  66   1.0000      -0.518716       -14.1150
  67   1.0000      -0.483494       -13.1566
  68   1.0000      -0.466669       -12.6987
  69   1.0000      -0.460892       -12.5415
  70   1.0000      -0.433909       -11.8073
  71   1.0000      -0.430462       -11.7135
  72   1.0000      -0.428896       -11.6708
  73   1.0000      -0.419975       -11.4281
  74   1.0000      -0.418697       -11.3933
  75   1.0000      -0.417864       -11.3707
  76   1.0000      -0.379575       -10.3288
  77   0.0000       0.010426         0.2837
  78   0.0000       0.020778         0.5654
  79   0.0000       0.022217         0.6046
  80   0.0000       0.029524         0.8034
  81   0.0000       0.036061         0.9813

                 SPIN DOWN ORBITALS
  NO   OCC          E(Eh)            E(eV)
   0   1.0000    -261.555680     -7117.2919
   1   1.0000    -104.781557     -2851.2511
   2   1.0000    -104.777340     -2851.1364
   3   1.0000    -104.777151     -2851.1312
   4   1.0000     -32.065022      -872.5336
   5   1.0000     -27.543011      -749.4834
   6   1.0000     -27.542919      -749.4809
   7   1.0000     -27.542576      -749.4716
   8   1.0000     -20.567705      -559.6757
   9   1.0000     -11.402953      -310.2901
  10   1.0000     -11.330057      -308.3065
  11   1.0000     -11.268517      -306.6319
  12   1.0000     -11.266902      -306.5880
  13   1.0000     -11.263207      -306.4874
  14   1.0000     -11.256235      -306.2977
  15   1.0000     -11.250896      -306.1525
  16   1.0000     -11.250490      -306.1414
  17   1.0000     -10.508094      -285.9398
  18   1.0000     -10.503841      -285.8240
  19   1.0000     -10.503680      -285.8197
  20   1.0000      -7.973966      -216.9826
  21   1.0000      -7.973420      -216.9678
  22   1.0000      -7.973353      -216.9660
  23   1.0000      -7.969822      -216.8699
  24   1.0000      -7.969593      -216.8637
  25   1.0000      -7.969062      -216.8492
  26   1.0000      -7.968975      -216.8468
  27   1.0000      -7.968915      -216.8452
  28   1.0000      -7.968829      -216.8429
  29   1.0000      -4.139976      -112.6545
  30   1.0000      -2.661676       -72.4279
  31   1.0000      -2.661661       -72.4275
  32   1.0000      -2.660853       -72.4055
  33   1.0000      -1.406790       -38.2807
  34   1.0000      -1.162237       -31.6261
  35   1.0000      -1.084668       -29.5153
  36   1.0000      -1.039978       -28.2992
  37   1.0000      -1.037405       -28.2292
  38   1.0000      -1.027605       -27.9625
  39   1.0000      -1.024826       -27.8869
  40   1.0000      -0.994161       -27.0525
  41   1.0000      -0.983471       -26.7616
  42   1.0000      -0.921426       -25.0733
  43   1.0000      -0.805822       -21.9275
  44   1.0000      -0.756300       -20.5800
  45   1.0000      -0.694433       -18.8965
  46   1.0000      -0.689959       -18.7747
  47   1.0000      -0.680872       -18.5275
  48   1.0000      -0.663854       -18.0644
  49   1.0000      -0.643964       -17.5231
  50   1.0000      -0.623109       -16.9556
  51   1.0000      -0.602153       -16.3854
  52   1.0000      -0.594808       -16.1856
  53   1.0000      -0.583499       -15.8778
  54   1.0000      -0.573253       -15.5990
  55   1.0000      -0.570144       -15.5144
  56   1.0000      -0.560882       -15.2624
  57   1.0000      -0.554747       -15.0954
  58   1.0000      -0.548555       -14.9269
  59   1.0000      -0.538700       -14.6588
  60   1.0000      -0.518822       -14.1179
  61   1.0000      -0.510435       -13.8897
  62   1.0000      -0.482244       -13.1225
  63   1.0000      -0.472200       -12.8492
  64   1.0000      -0.470340       -12.7986
  65   1.0000      -0.442873       -12.0512
  66   1.0000      -0.440029       -11.9738
  67   1.0000      -0.437912       -11.9162
  68   1.0000      -0.423685       -11.5291
  69   1.0000      -0.418302       -11.3826
  70   1.0000      -0.404268       -11.0007
  71   1.0000      -0.376989       -10.2584
  72   0.0000       0.010421         0.2836
  73   0.0000       0.020751         0.5647
  74   0.0000       0.022202         0.6041
  75   0.0000       0.029429         0.8008
  76   0.0000       0.035614         0.9691

E(0)                                       ...  -3028.430511579
E(0)                                       ...  -3028.430511579
E(CORR)(strong-pairs)                      ...     -2.873947180
E(CORR)(weak-pairs)                        ...     -0.036419952
E(CORR)(corrected)                         ...     -2.910367132
E(TOT)                                     ...  -3031.340878711
E(CCSD(T))                                 ...  -3031.460885369
FINAL SINGLE POINT ENERGY     -3031.460885369457

DIPOLE MOMENT
-------------
                                X             Y             Z
Electronic contribution:     41.16905       4.23922       1.84317
Nuclear contribution   :    -45.48295      -4.72639      -2.38593
                        -----------------------------------------
Total Dipole Moment    :     -4.31390      -0.48718      -0.54276
                        -----------------------------------------
Magnitude (a.u.)       :      4.37512
Magnitude (Debye)      :     11.12066

Rotational constants in cm-1:     0.019140     0.011358     0.010648
Rotational constants in MHz :   573.803137   340.508171   319.231439

                             ****ORCA TERMINATED NORMALLY****
TOTAL RUN TIME: 0 days 21 hours 14 minutes 25 seconds 882 msec
