                         Program Version 4.1.2  - RELEASE  -
|  1> ! aug-cc-pVTZ aug-cc-pVTZ/C DLPNO-CCSD(T1) TightSCF NormalPNO UNO MiniPrint AutoAux
|  2> %pal nproc 10 end
|  3> %maxcore 20000
|  4> %mdci
|  5>      density none
|  6> end
|  7>
|  8> * xyz 0 6
|  9>  O     -0.37369200     -0.24445800     -0.58233500
| 10>  C     -1.46724300     -1.17029200     -0.33555000
| 11>  C     -2.70362200     -0.15522000     -0.30399100
| 12>  C     -1.95815500      1.16699300     -0.23628500
| 13>  C     -1.82956400      2.00443700     -1.44771700
| 14> Fe      1.38181600      0.02160600      0.01197400
| 15> Cl      1.81237500      2.02035900     -0.85223600
| 16>  C     -1.60801000      1.77516600      1.06549200
| 17> Cl      2.56044900     -1.67701900     -0.71513800
| 18> Cl      1.35477500      0.16261000      2.22468800
| 19>  H     -3.19820300     -0.20568000     -1.27923400
| 20>  H     -2.49626600      2.34027100      1.39491200
| 21>  H     -1.37831500      1.03815000      1.83486800
| 22>  H     -0.77718000      2.47773800      0.96855700
| 23>  H     -2.57808400      2.81100500     -1.37422500
| 24>  H     -0.84119400      2.47599800     -1.47743000
| 25>  H     -2.00774200      1.44090000     -2.36400000
| 26>  C     -3.75291900     -0.36726500      0.78835100
| 27>  H     -4.54689700      0.38487400      0.72193300
| 28>  H     -4.21915600     -1.34881900      0.66055300
| 29>  H     -3.32615300     -0.32803100      1.79318200
| 30>  C     -1.24652000     -1.92930300      0.96659800
| 31>  H     -2.07153800     -2.62187100      1.16167600
| 32>  H     -0.32557300     -2.51526700      0.88001600
| 33>  H     -1.12875800     -1.26353300      1.82352700
| 34>  C     -1.55320700     -2.12479500     -1.51845800
| 35>  H     -0.63287700     -2.71463400     -1.57610300
| 36>  H     -2.40328700     -2.80888200     -1.41170400
| 37>  H     -1.66020000     -1.56779300     -2.45413300
| 38> *
| 39>
| 40>
| 41>                          ****END OF INPUT****

CARTESIAN COORDINATES (ANGSTROEM)
---------------------------------
  O     -0.373692   -0.244458   -0.582335
  C     -1.467243   -1.170292   -0.335550
  C     -2.703622   -0.155220   -0.303991
  C     -1.958155    1.166993   -0.236285
  C     -1.829564    2.004437   -1.447717
  Fe     1.381816    0.021606    0.011974
  Cl     1.812375    2.020359   -0.852236
  C     -1.608010    1.775166    1.065492
  Cl     2.560449   -1.677019   -0.715138
  Cl     1.354775    0.162610    2.224688
  H     -3.198203   -0.205680   -1.279234
  H     -2.496266    2.340271    1.394912
  H     -1.378315    1.038150    1.834868
  H     -0.777180    2.477738    0.968557
  H     -2.578084    2.811005   -1.374225
  H     -0.841194    2.475998   -1.477430
  H     -2.007742    1.440900   -2.364000
  C     -3.752919   -0.367265    0.788351
  H     -4.546897    0.384874    0.721933
  H     -4.219156   -1.348819    0.660553
  H     -3.326153   -0.328031    1.793182
  C     -1.246520   -1.929303    0.966598
  H     -2.071538   -2.621871    1.161676
  H     -0.325573   -2.515267    0.880016
  H     -1.128758   -1.263533    1.823527
  C     -1.553207   -2.124795   -1.518458
  H     -0.632877   -2.714634   -1.576103
  H     -2.403287   -2.808882   -1.411704
  H     -1.660200   -1.567793   -2.454133

ORBITAL ENERGIES
----------------
                 SPIN UP ORBITALS
  NO   OCC          E(Eh)            E(eV)
   0   1.0000    -261.545362     -7117.0111
   1   1.0000    -104.774833     -2851.0681
   2   1.0000    -104.773292     -2851.0262
   3   1.0000    -104.769732     -2850.9293
   4   1.0000     -32.213270      -876.5676
   5   1.0000     -27.689158      -753.4603
   6   1.0000     -27.689031      -753.4568
   7   1.0000     -27.688671      -753.4471
   8   1.0000     -20.551633      -559.2384
   9   1.0000     -11.412373      -310.5464
  10   1.0000     -11.330100      -308.3077
  11   1.0000     -11.294359      -307.3351
  12   1.0000     -11.283392      -307.0367
  13   1.0000     -11.282928      -307.0241
  14   1.0000     -11.267978      -306.6173
  15   1.0000     -11.234455      -305.7051
  16   1.0000     -11.233844      -305.6884
  17   1.0000     -10.501427      -285.7584
  18   1.0000     -10.500011      -285.7198
  19   1.0000     -10.496350      -285.6202
  20   1.0000      -7.968266      -216.8275
  21   1.0000      -7.967506      -216.8069
  22   1.0000      -7.967416      -216.8044
  23   1.0000      -7.966897      -216.7903
  24   1.0000      -7.966043      -216.7671
  25   1.0000      -7.966025      -216.7666
  26   1.0000      -7.963153      -216.6884
  27   1.0000      -7.962479      -216.6701
  28   1.0000      -7.962385      -216.6675
  29   1.0000      -4.568676      -124.3200
  30   1.0000      -3.181041       -86.5605
  31   1.0000      -3.180898       -86.5566
  32   1.0000      -3.180312       -86.5407
  33   1.0000      -1.348351       -36.6905
  34   1.0000      -1.178346       -32.0644
  35   1.0000      -1.097504       -29.8646
  36   1.0000      -1.045742       -28.4561
  37   1.0000      -1.040728       -28.3196
  38   1.0000      -1.037379       -28.2285
  39   1.0000      -1.034919       -28.1616
  40   1.0000      -1.018989       -27.7281
  41   1.0000      -0.963170       -26.2092
  42   1.0000      -0.936276       -25.4774
  43   1.0000      -0.900765       -24.5111
  44   1.0000      -0.897966       -24.4349
  45   1.0000      -0.897681       -24.4272
  46   1.0000      -0.890092       -24.2206
  47   1.0000      -0.889550       -24.2059
  48   1.0000      -0.806543       -21.9472
  49   1.0000      -0.759042       -20.6546
  50   1.0000      -0.703384       -19.1401
  51   1.0000      -0.689947       -18.7744
  52   1.0000      -0.672139       -18.2898
  53   1.0000      -0.637048       -17.3349
  54   1.0000      -0.635458       -17.2917
  55   1.0000      -0.619570       -16.8594
  56   1.0000      -0.606457       -16.5025
  57   1.0000      -0.596192       -16.2232
  58   1.0000      -0.594457       -16.1760
  59   1.0000      -0.584506       -15.9052
  60   1.0000      -0.576520       -15.6879
  61   1.0000      -0.559126       -15.2146
  62   1.0000      -0.543845       -14.7988
  63   1.0000      -0.536294       -14.5933
  64   1.0000      -0.526530       -14.3276
  65   1.0000      -0.518346       -14.1049
  66   1.0000      -0.502643       -13.6776
  67   1.0000      -0.471329       -12.8255
  68   1.0000      -0.467954       -12.7337
  69   1.0000      -0.449940       -12.2435
  70   1.0000      -0.440887       -11.9971
  71   1.0000      -0.425822       -11.5872
  72   1.0000      -0.421281       -11.4636
  73   1.0000      -0.417213       -11.3529
  74   1.0000      -0.413245       -11.2450
  75   1.0000      -0.411702       -11.2030
  76   1.0000      -0.409857       -11.1528
  77   0.0000       0.005694         0.1549
  78   0.0000       0.018321         0.4986
  79   0.0000       0.021179         0.5763
  80   0.0000       0.030044         0.8175
  81   0.0000       0.031908         0.8683

                 SPIN DOWN ORBITALS
  NO   OCC          E(Eh)            E(eV)
   0   1.0000    -261.541814     -7116.9146
   1   1.0000    -104.773532     -2851.0328
   2   1.0000    -104.771922     -2850.9889
   3   1.0000    -104.768278     -2850.8898
   4   1.0000     -32.051263      -872.1592
   5   1.0000     -27.529378      -749.1125
   6   1.0000     -27.529139      -749.1060
   7   1.0000     -27.528665      -749.0931
   8   1.0000     -20.545707      -559.0771
   9   1.0000     -11.412432      -310.5481
  10   1.0000     -11.329876      -308.3016
  11   1.0000     -11.294266      -307.3326
  12   1.0000     -11.283396      -307.0368
  13   1.0000     -11.282906      -307.0235
  14   1.0000     -11.267967      -306.6170
  15   1.0000     -11.234413      -305.7039
  16   1.0000     -11.233827      -305.6880
  17   1.0000     -10.500028      -285.7203
  18   1.0000     -10.498536      -285.6797
  19   1.0000     -10.494795      -285.5779
  20   1.0000      -7.965966      -216.7649
  21   1.0000      -7.965403      -216.7496
  22   1.0000      -7.965326      -216.7475
  23   1.0000      -7.964425      -216.7230
  24   1.0000      -7.963874      -216.7080
  25   1.0000      -7.963825      -216.7067
  26   1.0000      -7.960778      -216.6238
  27   1.0000      -7.960003      -216.6027
  28   1.0000      -7.959943      -216.6011
  29   1.0000      -4.126586      -112.2901
  30   1.0000      -2.648553       -72.0708
  31   1.0000      -2.648473       -72.0686
  32   1.0000      -2.647355       -72.0382
  33   1.0000      -1.333174       -36.2775
  34   1.0000      -1.176465       -32.0133
  35   1.0000      -1.094997       -29.7964
  36   1.0000      -1.033225       -28.1155
  37   1.0000      -1.031634       -28.0722
  38   1.0000      -1.022625       -27.8270
  39   1.0000      -1.017757       -27.6946
  40   1.0000      -1.016415       -27.6581
  41   1.0000      -0.962337       -26.1865
  42   1.0000      -0.932497       -25.3745
  43   1.0000      -0.808831       -22.0094
  44   1.0000      -0.763112       -20.7653
  45   1.0000      -0.703488       -19.1429
  46   1.0000      -0.689956       -18.7747
  47   1.0000      -0.673417       -18.3246
  48   1.0000      -0.637246       -17.3403
  49   1.0000      -0.636283       -17.3141
  50   1.0000      -0.618286       -16.8244
  51   1.0000      -0.606548       -16.5050
  52   1.0000      -0.595301       -16.1990
  53   1.0000      -0.593870       -16.1600
  54   1.0000      -0.583719       -15.8838
  55   1.0000      -0.575660       -15.6645
  56   1.0000      -0.558421       -15.1954
  57   1.0000      -0.539554       -14.6820
  58   1.0000      -0.536004       -14.5854
  59   1.0000      -0.523889       -14.2557
  60   1.0000      -0.514063       -13.9884
  61   1.0000      -0.499978       -13.6051
  62   1.0000      -0.468916       -12.7599
  63   1.0000      -0.466084       -12.6828
  64   1.0000      -0.457144       -12.4395
  65   1.0000      -0.449088       -12.2203
  66   1.0000      -0.436551       -11.8792
  67   1.0000      -0.431610       -11.7447
  68   1.0000      -0.431127       -11.7316
  69   1.0000      -0.411150       -11.1880
  70   1.0000      -0.404486       -11.0066
  71   1.0000      -0.397980       -10.8296
  72   0.0000       0.005661         0.1540
  73   0.0000       0.018081         0.4920
  74   0.0000       0.021158         0.5757
  75   0.0000       0.029846         0.8121
  76   0.0000       0.030989         0.8432

E(0)                                       ...  -3028.440491211
E(0)                                       ...  -3028.440491211
E(CORR)(strong-pairs)                      ...     -2.871157158
E(CORR)(weak-pairs)                        ...     -0.035000081
E(CORR)(corrected)                         ...     -2.906157239
E(TOT)                                     ...  -3031.346648450
E(CCSD(T))                                 ...  -3031.464720634
FINAL SINGLE POINT ENERGY     -3031.464720633702

DIPOLE MOMENT
-------------
                                X             Y             Z
Electronic contribution:     40.47267       3.80813       1.34438
Nuclear contribution   :    -45.36142      -3.09865      -1.63125
                        -----------------------------------------
Total Dipole Moment    :     -4.88875       0.70948      -0.28686
                        -----------------------------------------
Magnitude (a.u.)       :      4.94829
Magnitude (Debye)      :     12.57755

Rotational constants in cm-1:     0.019134     0.011961     0.010614
Rotational constants in MHz :   573.618291   358.577231   318.185506

                             ****ORCA TERMINATED NORMALLY****
TOTAL RUN TIME: 0 days 19 hours 34 minutes 9 seconds 179 msec
