                         Program Version 4.1.2  - RELEASE  -
|  1> ! aug-cc-pVTZ aug-cc-pVTZ/C DLPNO-CCSD(T1) TightSCF NormalPNO UNO MiniPrint AutoAux
|  2> %pal nproc 10 end
|  3> %maxcore 20000
|  4> %mdci
|  5>      density none
|  6> end
|  7>
|  8> * xyz 0 6
|  9>  O     -0.27652800     -0.24076100     -0.80407300
| 10>  C     -1.12581300     -1.17290200     -0.64412200
| 11>  C     -2.94002900     -0.17658000      0.46874200
| 12>  C     -2.53592700      0.97115600     -0.13408800
| 13>  C     -2.98818500      1.34559700     -1.51397700
| 14> Fe      1.44615400      0.12913500      0.00687600
| 15> Cl      2.06139000      2.02853400     -0.87391700
| 16>  C     -1.62899300      1.97004500      0.51053700
| 17> Cl      2.62505200     -1.62174700     -0.58196600
| 18> Cl      1.15347500      0.22733500      2.19004100
| 19>  H     -3.67928900     -0.77764000     -0.05813400
| 20>  H     -2.18821300      2.89869800      0.68958100
| 21>  H     -1.20684200      1.63817400      1.45777600
| 22>  H     -0.80654200      2.23118100     -0.16621300
| 23>  H     -3.45205000      2.33978600     -1.48770700
| 24>  H     -2.12646600      1.42546900     -2.18974900
| 25>  H     -3.71494000      0.64341100     -1.92930100
| 26>  C     -2.80129000     -0.46956600      1.94282100
| 27>  H     -3.58861300      0.05859200      2.49655100
| 28>  H     -2.92545900     -1.53477000      2.15359500
| 29>  H     -1.84104900     -0.15196500      2.35589400
| 30>  C     -0.89978000     -2.20849200      0.42178100
| 31>  H     -1.77571700     -2.83800700      0.58281200
| 32>  H     -0.08322000     -2.83964800      0.04104000
| 33>  H     -0.55940100     -1.77167400      1.35983100
| 34>  C     -1.86325800     -1.63044300     -1.87603900
| 35>  H     -1.17703000     -2.32302300     -2.38380000
| 36>  H     -2.77945800     -2.17487900     -1.64279200
| 37>  H     -2.06243200     -0.80811400     -2.56020300
| 38> *
| 39>
| 40>
| 41>                          ****END OF INPUT****

CARTESIAN COORDINATES (ANGSTROEM)
---------------------------------
  O     -0.276528   -0.240761   -0.804073
  C     -1.125813   -1.172902   -0.644122
  C     -2.940029   -0.176580    0.468742
  C     -2.535927    0.971156   -0.134088
  C     -2.988185    1.345597   -1.513977
  Fe     1.446154    0.129135    0.006876
  Cl     2.061390    2.028534   -0.873917
  C     -1.628993    1.970045    0.510537
  Cl     2.625052   -1.621747   -0.581966
  Cl     1.153475    0.227335    2.190041
  H     -3.679289   -0.777640   -0.058134
  H     -2.188213    2.898698    0.689581
  H     -1.206842    1.638174    1.457776
  H     -0.806542    2.231181   -0.166213
  H     -3.452050    2.339786   -1.487707
  H     -2.126466    1.425469   -2.189749
  H     -3.714940    0.643411   -1.929301
  C     -2.801290   -0.469566    1.942821
  H     -3.588613    0.058592    2.496551
  H     -2.925459   -1.534770    2.153595
  H     -1.841049   -0.151965    2.355894
  C     -0.899780   -2.208492    0.421781
  H     -1.775717   -2.838007    0.582812
  H     -0.083220   -2.839648    0.041040
  H     -0.559401   -1.771674    1.359831
  C     -1.863258   -1.630443   -1.876039
  H     -1.177030   -2.323023   -2.383800
  H     -2.779458   -2.174879   -1.642792
  H     -2.062432   -0.808114   -2.560203

ORBITAL ENERGIES
----------------
                 SPIN UP ORBITALS
  NO   OCC          E(Eh)            E(eV)
   0   1.0000    -261.569206     -7117.6599
   1   1.0000    -104.789479     -2851.4667
   2   1.0000    -104.785876     -2851.3686
   3   1.0000    -104.784532     -2851.3321
   4   1.0000     -32.236985      -877.2130
   5   1.0000     -27.713306      -754.1174
   6   1.0000     -27.712417      -754.0932
   7   1.0000     -27.712240      -754.0884
   8   1.0000     -20.600018      -560.5550
   9   1.0000     -11.417358      -310.6821
  10   1.0000     -11.290781      -307.2378
  11   1.0000     -11.272655      -306.7445
  12   1.0000     -11.266563      -306.5788
  13   1.0000     -11.253943      -306.2353
  14   1.0000     -11.252550      -306.1974
  15   1.0000     -11.242564      -305.9257
  16   1.0000     -11.237375      -305.7845
  17   1.0000     -10.516164      -286.1594
  18   1.0000     -10.512545      -286.0609
  19   1.0000     -10.511155      -286.0231
  20   1.0000      -7.983017      -217.2289
  21   1.0000      -7.982221      -217.2073
  22   1.0000      -7.982182      -217.2062
  23   1.0000      -7.979417      -217.1310
  24   1.0000      -7.978640      -217.1098
  25   1.0000      -7.978580      -217.1082
  26   1.0000      -7.977953      -217.0911
  27   1.0000      -7.977275      -217.0727
  28   1.0000      -7.977220      -217.0712
  29   1.0000      -4.592006      -124.9548
  30   1.0000      -3.204995       -87.2124
  31   1.0000      -3.203580       -87.1738
  32   1.0000      -3.203368       -87.1681
  33   1.0000      -1.446206       -39.3533
  34   1.0000      -1.141745       -31.0685
  35   1.0000      -1.095384       -29.8069
  36   1.0000      -1.061822       -28.8936
  37   1.0000      -1.056072       -28.7372
  38   1.0000      -1.053358       -28.6633
  39   1.0000      -1.027933       -27.9715
  40   1.0000      -1.004619       -27.3371
  41   1.0000      -0.969138       -26.3716
  42   1.0000      -0.936866       -25.4934
  43   1.0000      -0.921049       -25.0630
  44   1.0000      -0.920980       -25.0611
  45   1.0000      -0.910903       -24.7869
  46   1.0000      -0.910205       -24.7679
  47   1.0000      -0.906783       -24.6748
  48   1.0000      -0.805167       -21.9097
  49   1.0000      -0.741078       -20.1657
  50   1.0000      -0.702223       -19.1085
  51   1.0000      -0.693408       -18.8686
  52   1.0000      -0.685057       -18.6414
  53   1.0000      -0.664468       -18.0811
  54   1.0000      -0.631114       -17.1735
  55   1.0000      -0.621796       -16.9199
  56   1.0000      -0.604881       -16.4597
  57   1.0000      -0.597631       -16.2624
  58   1.0000      -0.583777       -15.8854
  59   1.0000      -0.575164       -15.6510
  60   1.0000      -0.562713       -15.3122
  61   1.0000      -0.556622       -15.1465
  62   1.0000      -0.549571       -14.9546
  63   1.0000      -0.548078       -14.9140
  64   1.0000      -0.536115       -14.5884
  65   1.0000      -0.528973       -14.3941
  66   1.0000      -0.504262       -13.7217
  67   1.0000      -0.495219       -13.4756
  68   1.0000      -0.472867       -12.8674
  69   1.0000      -0.470374       -12.7995
  70   1.0000      -0.441653       -12.0180
  71   1.0000      -0.436539       -11.8788
  72   1.0000      -0.434796       -11.8314
  73   1.0000      -0.426030       -11.5929
  74   1.0000      -0.424953       -11.5636
  75   1.0000      -0.423853       -11.5336
  76   1.0000      -0.367257        -9.9936
  77   0.0000       0.012142         0.3304
  78   0.0000       0.022564         0.6140
  79   0.0000       0.023448         0.6381
  80   0.0000       0.030252         0.8232
  81   0.0000       0.038702         1.0531

                 SPIN DOWN ORBITALS
  NO   OCC          E(Eh)            E(eV)
   0   1.0000    -261.565640     -7117.5629
   1   1.0000    -104.788036     -2851.4274
   2   1.0000    -104.784350     -2851.3271
   3   1.0000    -104.783020     -2851.2909
   4   1.0000     -32.074956      -872.8039
   5   1.0000     -27.552872      -749.7518
   6   1.0000     -27.552832      -749.7507
   7   1.0000     -27.552636      -749.7453
   8   1.0000     -20.596109      -560.4486
   9   1.0000     -11.417270      -310.6797
  10   1.0000     -11.290721      -307.2361
  11   1.0000     -11.272543      -306.7415
  12   1.0000     -11.266551      -306.5784
  13   1.0000     -11.253908      -306.2344
  14   1.0000     -11.252557      -306.1976
  15   1.0000     -11.242566      -305.9258
  16   1.0000     -11.237403      -305.7853
  17   1.0000     -10.514620      -286.1174
  18   1.0000     -10.510915      -286.0165
  19   1.0000     -10.509546      -285.9793
  20   1.0000      -7.980519      -217.1610
  21   1.0000      -7.979862      -217.1431
  22   1.0000      -7.979813      -217.1417
  23   1.0000      -7.976806      -217.0599
  24   1.0000      -7.976128      -217.0415
  25   1.0000      -7.976038      -217.0390
  26   1.0000      -7.975529      -217.0252
  27   1.0000      -7.974693      -217.0024
  28   1.0000      -7.974609      -217.0001
  29   1.0000      -4.149794      -112.9216
  30   1.0000      -2.671398       -72.6924
  31   1.0000      -2.671381       -72.6920
  32   1.0000      -2.670767       -72.6753
  33   1.0000      -1.436420       -39.0870
  34   1.0000      -1.141280       -31.0558
  35   1.0000      -1.092816       -29.7370
  36   1.0000      -1.046686       -28.4818
  37   1.0000      -1.034323       -28.1454
  38   1.0000      -1.031300       -28.0631
  39   1.0000      -1.027426       -27.9577
  40   1.0000      -1.003826       -27.3155
  41   1.0000      -0.969030       -26.3686
  42   1.0000      -0.907266       -24.6880
  43   1.0000      -0.818364       -22.2688
  44   1.0000      -0.741168       -20.1682
  45   1.0000      -0.704903       -19.1814
  46   1.0000      -0.692614       -18.8470
  47   1.0000      -0.684106       -18.6155
  48   1.0000      -0.664313       -18.0769
  49   1.0000      -0.631044       -17.1716
  50   1.0000      -0.621287       -16.9061
  51   1.0000      -0.604428       -16.4473
  52   1.0000      -0.597563       -16.2605
  53   1.0000      -0.583537       -15.8788
  54   1.0000      -0.574138       -15.6231
  55   1.0000      -0.562265       -15.3000
  56   1.0000      -0.556490       -15.1429
  57   1.0000      -0.548944       -14.9375
  58   1.0000      -0.546166       -14.8619
  59   1.0000      -0.534729       -14.5507
  60   1.0000      -0.518510       -14.1094
  61   1.0000      -0.504116       -13.7177
  62   1.0000      -0.495852       -13.4928
  63   1.0000      -0.480220       -13.0674
  64   1.0000      -0.478079       -13.0092
  65   1.0000      -0.449532       -12.2324
  66   1.0000      -0.446589       -12.1523
  67   1.0000      -0.443940       -12.0802
  68   1.0000      -0.428105       -11.6493
  69   1.0000      -0.424802       -11.5594
  70   1.0000      -0.409698       -11.1485
  71   1.0000      -0.366038        -9.9604
  72   0.0000       0.012129         0.3300
  73   0.0000       0.022539         0.6133
  74   0.0000       0.023427         0.6375
  75   0.0000       0.030165         0.8208
  76   0.0000       0.038500         1.0476

E(0)                                       ...  -3028.446706335
E(0)                                       ...  -3028.446706335
E(CORR)(strong-pairs)                      ...     -2.871799162
E(CORR)(weak-pairs)                        ...     -0.036235624
E(CORR)(corrected)                         ...     -2.908034786
E(TOT)                                     ...  -3031.354741121
E(CCSD(T))                                 ...  -3031.473864604
FINAL SINGLE POINT ENERGY     -3031.473864603853

DIPOLE MOMENT
-------------
                                X             Y             Z
Electronic contribution:     42.36256       4.17491       1.67542
Nuclear contribution   :    -46.11356      -5.19293      -2.28369
                        -----------------------------------------
Total Dipole Moment    :     -3.75100      -1.01802      -0.60828
                        -----------------------------------------
Magnitude (a.u.)       :      3.93400
Magnitude (Debye)      :      9.99944

Rotational constants in cm-1:     0.019051     0.011080     0.010428
Rotational constants in MHz :   571.141620   332.158208   312.634574

                             ****ORCA TERMINATED NORMALLY****
TOTAL RUN TIME: 0 days 18 hours 55 minutes 38 seconds 624 msec
