                         Program Version 4.1.2  - RELEASE  -
|  1> ! aug-cc-pVTZ aug-cc-pVTZ/C DLPNO-CCSD(T1) TightSCF NormalPNO UNO MiniPrint AutoAux
|  2> %pal nproc 10 end
|  3> %maxcore 20000
|  4> %mdci
|  5>      density none
|  6> end
|  7>
|  8> * xyz 0 6
|  9>  O     -0.34156200     -0.30338000     -0.60400100
| 10>  C     -1.45780600     -1.17876800     -0.34042400
| 11>  C     -2.68997300     -0.15811200     -0.34577300
| 12>  C     -1.99205300      1.17675600     -0.21990700
| 13>  C     -1.81226000      2.04847800     -1.39290900
| 14> Fe      1.38406400      0.01160100      0.00514600
| 15> Cl      1.75081300      2.04364200     -0.84321800
| 16>  C     -1.64485300      1.73039200      1.10309000
| 17> Cl      2.66851600     -1.61515600     -0.70864100
| 18> Cl      1.33629000      0.15541300      2.22178900
| 19>  H     -3.13808800     -0.19894700     -1.34310100
| 20>  H     -2.54897100      2.25038300      1.46465000
| 21>  H     -1.38884700      0.96547400      1.83621600
| 22>  H     -0.83814500      2.46405300      1.03405500
| 23>  H     -2.34210800      2.99746100     -1.21812400
| 24>  H     -0.74379500      2.30853500     -1.46424700
| 25>  H     -2.15084100      1.59426800     -2.32393100
| 26>  C     -3.78762800     -0.40093400      0.69501900
| 27>  H     -4.58967500      0.33965700      0.60254800
| 28>  H     -4.23035600     -1.38765000      0.52987400
| 29>  H     -3.40651000     -0.37095900      1.71834200
| 30>  C     -1.26969400     -1.91566300      0.98165000
| 31>  H     -2.10609800     -2.59330500      1.17971500
| 32>  H     -0.35574600     -2.51514200      0.91710400
| 33>  H     -1.14993100     -1.23782700      1.82867100
| 34>  C     -1.57027900     -2.16557100     -1.49676600
| 35>  H     -0.67249600     -2.79117800     -1.52502500
| 36>  H     -2.44704600     -2.81404900     -1.38256100
| 37>  H     -1.64276300     -1.63111600     -2.44865100
| 38> *
| 39>
| 40>
| 41>                          ****END OF INPUT****

CARTESIAN COORDINATES (ANGSTROEM)
---------------------------------
  O     -0.341562   -0.303380   -0.604001
  C     -1.457806   -1.178768   -0.340424
  C     -2.689973   -0.158112   -0.345773
  C     -1.992053    1.176756   -0.219907
  C     -1.812260    2.048478   -1.392909
  Fe     1.384064    0.011601    0.005146
  Cl     1.750813    2.043642   -0.843218
  C     -1.644853    1.730392    1.103090
  Cl     2.668516   -1.615156   -0.708641
  Cl     1.336290    0.155413    2.221789
  H     -3.138088   -0.198947   -1.343101
  H     -2.548971    2.250383    1.464650
  H     -1.388847    0.965474    1.836216
  H     -0.838145    2.464053    1.034055
  H     -2.342108    2.997461   -1.218124
  H     -0.743795    2.308535   -1.464247
  H     -2.150841    1.594268   -2.323931
  C     -3.787628   -0.400934    0.695019
  H     -4.589675    0.339657    0.602548
  H     -4.230356   -1.387650    0.529874
  H     -3.406510   -0.370959    1.718342
  C     -1.269694   -1.915663    0.981650
  H     -2.106098   -2.593305    1.179715
  H     -0.355746   -2.515142    0.917104
  H     -1.149931   -1.237827    1.828671
  C     -1.570279   -2.165571   -1.496766
  H     -0.672496   -2.791178   -1.525025
  H     -2.447046   -2.814049   -1.382561
  H     -1.642763   -1.631116   -2.448651

ORBITAL ENERGIES
----------------
                 SPIN UP ORBITALS
  NO   OCC          E(Eh)            E(eV)
   0   1.0000    -261.542724     -7116.9393
   1   1.0000    -104.773907     -2851.0430
   2   1.0000    -104.771891     -2850.9881
   3   1.0000    -104.767417     -2850.8663
   4   1.0000     -32.210594      -876.4948
   5   1.0000     -27.686557      -753.3895
   6   1.0000     -27.686302      -753.3826
   7   1.0000     -27.686010      -753.3746
   8   1.0000     -20.543038      -559.0045
   9   1.0000     -11.416511      -310.6590
  10   1.0000     -11.329696      -308.2967
  11   1.0000     -11.295464      -307.3652
  12   1.0000     -11.287160      -307.1392
  13   1.0000     -11.284068      -307.0551
  14   1.0000     -11.270784      -306.6936
  15   1.0000     -11.233686      -305.6841
  16   1.0000     -11.233459      -305.6780
  17   1.0000     -10.500478      -285.7325
  18   1.0000     -10.498600      -285.6814
  19   1.0000     -10.494009      -285.5565
  20   1.0000      -7.967323      -216.8019
  21   1.0000      -7.966536      -216.7805
  22   1.0000      -7.966452      -216.7782
  23   1.0000      -7.965491      -216.7520
  24   1.0000      -7.964628      -216.7286
  25   1.0000      -7.964608      -216.7280
  26   1.0000      -7.960808      -216.6246
  27   1.0000      -7.960142      -216.6065
  28   1.0000      -7.960039      -216.6037
  29   1.0000      -4.566044      -124.2484
  30   1.0000      -3.178522       -86.4920
  31   1.0000      -3.178192       -86.4830
  32   1.0000      -3.177733       -86.4705
  33   1.0000      -1.344640       -36.5895
  34   1.0000      -1.185435       -32.2573
  35   1.0000      -1.098820       -29.9004
  36   1.0000      -1.043921       -28.4065
  37   1.0000      -1.039273       -28.2801
  38   1.0000      -1.035277       -28.1713
  39   1.0000      -1.034837       -28.1594
  40   1.0000      -1.022200       -27.8155
  41   1.0000      -0.962652       -26.1951
  42   1.0000      -0.937646       -25.5146
  43   1.0000      -0.899819       -24.4853
  44   1.0000      -0.895431       -24.3659
  45   1.0000      -0.895323       -24.3630
  46   1.0000      -0.887960       -24.1626
  47   1.0000      -0.887269       -24.1438
  48   1.0000      -0.808143       -21.9907
  49   1.0000      -0.760433       -20.6924
  50   1.0000      -0.706626       -19.2283
  51   1.0000      -0.690553       -18.7909
  52   1.0000      -0.673375       -18.3235
  53   1.0000      -0.638694       -17.3797
  54   1.0000      -0.637156       -17.3379
  55   1.0000      -0.619208       -16.8495
  56   1.0000      -0.608720       -16.5641
  57   1.0000      -0.597487       -16.2585
  58   1.0000      -0.594778       -16.1847
  59   1.0000      -0.587619       -15.9899
  60   1.0000      -0.578027       -15.7289
  61   1.0000      -0.559207       -15.2168
  62   1.0000      -0.544673       -14.8213
  63   1.0000      -0.536436       -14.5972
  64   1.0000      -0.526033       -14.3141
  65   1.0000      -0.519573       -14.1383
  66   1.0000      -0.501168       -13.6375
  67   1.0000      -0.469184       -12.7671
  68   1.0000      -0.466513       -12.6945
  69   1.0000      -0.446868       -12.1599
  70   1.0000      -0.437761       -11.9121
  71   1.0000      -0.424435       -11.5495
  72   1.0000      -0.419614       -11.4183
  73   1.0000      -0.415711       -11.3121
  74   1.0000      -0.411311       -11.1924
  75   1.0000      -0.410551       -11.1717
  76   1.0000      -0.407801       -11.0968
  77   0.0000       0.004876         0.1327
  78   0.0000       0.014184         0.3860
  79   0.0000       0.020616         0.5610
  80   0.0000       0.022823         0.6210
  81   0.0000       0.029895         0.8135

                 SPIN DOWN ORBITALS
  NO   OCC          E(Eh)            E(eV)
   0   1.0000    -261.539179     -7116.8429
   1   1.0000    -104.772650     -2851.0087
   2   1.0000    -104.770539     -2850.9513
   3   1.0000    -104.765973     -2850.8270
   4   1.0000     -32.048577      -872.0861
   5   1.0000     -27.526753      -749.0410
   6   1.0000     -27.526468      -749.0333
   7   1.0000     -27.525926      -749.0185
   8   1.0000     -20.536698      -558.8320
   9   1.0000     -11.416559      -310.6604
  10   1.0000     -11.329450      -308.2900
  11   1.0000     -11.295364      -307.3625
  12   1.0000     -11.287165      -307.1394
  13   1.0000     -11.284044      -307.0545
  14   1.0000     -11.270776      -306.6934
  15   1.0000     -11.233634      -305.6827
  16   1.0000     -11.233434      -305.6773
  17   1.0000     -10.499122      -285.6956
  18   1.0000     -10.497143      -285.6418
  19   1.0000     -10.492464      -285.5145
  20   1.0000      -7.965026      -216.7394
  21   1.0000      -7.964555      -216.7266
  22   1.0000      -7.964463      -216.7241
  23   1.0000      -7.963026      -216.6850
  24   1.0000      -7.962500      -216.6707
  25   1.0000      -7.962453      -216.6694
  26   1.0000      -7.958453      -216.5605
  27   1.0000      -7.957676      -216.5394
  28   1.0000      -7.957614      -216.5377
  29   1.0000      -4.123958      -112.2186
  30   1.0000      -2.645983       -72.0008
  31   1.0000      -2.645834       -71.9968
  32   1.0000      -2.644806       -71.9688
  33   1.0000      -1.328330       -36.1457
  34   1.0000      -1.183670       -32.2093
  35   1.0000      -1.096223       -29.8297
  36   1.0000      -1.033171       -28.1140
  37   1.0000      -1.030141       -28.0316
  38   1.0000      -1.024542       -27.8792
  39   1.0000      -1.017689       -27.6927
  40   1.0000      -1.014608       -27.6089
  41   1.0000      -0.961761       -26.1708
  42   1.0000      -0.934733       -25.4354
  43   1.0000      -0.810869       -22.0649
  44   1.0000      -0.764885       -20.8136
  45   1.0000      -0.706740       -19.2314
  46   1.0000      -0.691011       -18.8034
  47   1.0000      -0.674654       -18.3583
  48   1.0000      -0.639089       -17.3905
  49   1.0000      -0.637958       -17.3597
  50   1.0000      -0.618033       -16.8175
  51   1.0000      -0.608800       -16.5663
  52   1.0000      -0.596279       -16.2256
  53   1.0000      -0.594304       -16.1718
  54   1.0000      -0.587122       -15.9764
  55   1.0000      -0.576998       -15.7009
  56   1.0000      -0.558407       -15.1950
  57   1.0000      -0.540868       -14.7178
  58   1.0000      -0.536311       -14.5938
  59   1.0000      -0.523104       -14.2344
  60   1.0000      -0.515061       -14.0155
  61   1.0000      -0.497897       -13.5485
  62   1.0000      -0.466982       -12.7072
  63   1.0000      -0.464027       -12.6268
  64   1.0000      -0.453455       -12.3391
  65   1.0000      -0.446626       -12.1533
  66   1.0000      -0.435233       -11.8433
  67   1.0000      -0.429717       -11.6932
  68   1.0000      -0.429575       -11.6893
  69   1.0000      -0.409275       -11.1369
  70   1.0000      -0.401643       -10.9293
  71   1.0000      -0.396664       -10.7938
  72   0.0000       0.004830         0.1314
  73   0.0000       0.013564         0.3691
  74   0.0000       0.020590         0.5603
  75   0.0000       0.022509         0.6125
  76   0.0000       0.029916         0.8140

E(0)                                       ...  -3028.436814381
E(0)                                       ...  -3028.436814381
E(CORR)(strong-pairs)                      ...     -2.869398525
E(CORR)(weak-pairs)                        ...     -0.035080330
E(CORR)(corrected)                         ...     -2.904478855
E(TOT)                                     ...  -3031.341293236
E(CCSD(T))                                 ...  -3031.458865534
FINAL SINGLE POINT ENERGY     -3031.458865534429

DIPOLE MOMENT
-------------
                                X             Y             Z
Electronic contribution:     40.52663       4.14253       1.27516
Nuclear contribution   :    -45.56200      -3.37705      -1.52442
                        -----------------------------------------
Total Dipole Moment    :     -5.03537       0.76548      -0.24926
                        -----------------------------------------
Magnitude (a.u.)       :      5.09932
Magnitude (Debye)      :     12.96144

Rotational constants in cm-1:     0.019237     0.011858     0.010504
Rotational constants in MHz :   576.713163   355.488260   314.916333

                             ****ORCA TERMINATED NORMALLY****
TOTAL RUN TIME: 0 days 20 hours 36 minutes 0 seconds 476 msec
