                         Program Version 4.1.2  - RELEASE  -
|  1> ! aug-cc-pVTZ aug-cc-pVTZ/C DLPNO-CCSD(T1) TightSCF NormalPNO UNO MiniPrint AutoAux
|  2> %pal nproc 10 end
|  3> %maxcore 20000
|  4> %mdci
|  5>      density none
|  6> end
|  7>
|  8> * xyz 0 6
|  9>  O     -0.30627200     -0.15570000     -0.69289400
| 10>  C     -1.18374800     -1.08009700     -0.59538000
| 11>  C     -3.09734400     -0.05799300      0.16846100
| 12>  C     -2.38126300      1.04350300     -0.18414300
| 13>  C     -2.43408300      1.61272600     -1.56786200
| 14> Fe      1.45437200      0.08391200      0.04440700
| 15> Cl      2.08440400      2.01145500     -0.77360700
| 16>  C     -1.56364300      1.83456500      0.78833600
| 17> Cl      2.51154700     -1.69019900     -0.70028500
| 18> Cl      1.29522900      0.07356000      2.24292100
| 19>  H     -3.75496900     -0.48175900     -0.58770000
| 20>  H     -2.18361100      2.66090900      1.16501700
| 21>  H     -1.22243900      1.25761000      1.64790400
| 22>  H     -0.69424500      2.28337000      0.29949600
| 23>  H     -2.73565700      2.66622500     -1.50653800
| 24>  H     -1.43490000      1.59878600     -2.01893400
| 25>  H     -3.14355000      1.09382500     -2.21682500
| 26>  C     -3.38949500     -0.48832500      1.58253300
| 27>  H     -4.28918700      0.02971700      1.94071600
| 28>  H     -3.59528100     -1.56048500      1.64682300
| 29>  H     -2.58134400     -0.25321100      2.27881700
| 30>  C     -1.06549200     -2.07221200      0.52710500
| 31>  H     -1.94160000     -2.71474500      0.61555600
| 32>  H     -0.20110100     -2.70063000      0.26504100
| 33>  H     -0.83599800     -1.59145200      1.47803400
| 34>  C     -1.76708600     -1.58411500     -1.89032500
| 35>  H     -0.98536200     -2.21956300     -2.33053700
| 36>  H     -2.66140100     -2.19146600     -1.74225600
| 37>  H     -1.95999300     -0.77340700     -2.59187600
| 38> *
| 39>
| 40>
| 41>                          ****END OF INPUT****

CARTESIAN COORDINATES (ANGSTROEM)
---------------------------------
  O     -0.306272   -0.155700   -0.692894
  C     -1.183748   -1.080097   -0.595380
  C     -3.097344   -0.057993    0.168461
  C     -2.381263    1.043503   -0.184143
  C     -2.434083    1.612726   -1.567862
  Fe     1.454372    0.083912    0.044407
  Cl     2.084404    2.011455   -0.773607
  C     -1.563643    1.834565    0.788336
  Cl     2.511547   -1.690199   -0.700285
  Cl     1.295229    0.073560    2.242921
  H     -3.754969   -0.481759   -0.587700
  H     -2.183611    2.660909    1.165017
  H     -1.222439    1.257610    1.647904
  H     -0.694245    2.283370    0.299496
  H     -2.735657    2.666225   -1.506538
  H     -1.434900    1.598786   -2.018934
  H     -3.143550    1.093825   -2.216825
  C     -3.389495   -0.488325    1.582533
  H     -4.289187    0.029717    1.940716
  H     -3.595281   -1.560485    1.646823
  H     -2.581344   -0.253211    2.278817
  C     -1.065492   -2.072212    0.527105
  H     -1.941600   -2.714745    0.615556
  H     -0.201101   -2.700630    0.265041
  H     -0.835998   -1.591452    1.478034
  C     -1.767086   -1.584115   -1.890325
  H     -0.985362   -2.219563   -2.330537
  H     -2.661401   -2.191466   -1.742256
  H     -1.959993   -0.773407   -2.591876

ORBITAL ENERGIES
----------------
                 SPIN UP ORBITALS
  NO   OCC          E(Eh)            E(eV)
   0   1.0000    -261.566456     -7117.5851
   1   1.0000    -104.786775     -2851.3931
   2   1.0000    -104.784359     -2851.3274
   3   1.0000    -104.783571     -2851.3059
   4   1.0000     -32.234250      -877.1385
   5   1.0000     -27.710535      -754.0420
   6   1.0000     -27.709705      -754.0194
   7   1.0000     -27.709551      -754.0152
   8   1.0000     -20.589958      -560.2812
   9   1.0000     -11.416482      -310.6583
  10   1.0000     -11.300601      -307.5050
  11   1.0000     -11.271286      -306.7073
  12   1.0000     -11.265434      -306.5480
  13   1.0000     -11.257977      -306.3451
  14   1.0000     -11.251261      -306.1624
  15   1.0000     -11.250045      -306.1293
  16   1.0000     -11.242237      -305.9168
  17   1.0000     -10.513440      -286.0852
  18   1.0000     -10.510984      -286.0184
  19   1.0000     -10.510158      -285.9959
  20   1.0000      -7.980296      -217.1549
  21   1.0000      -7.979500      -217.1332
  22   1.0000      -7.979462      -217.1322
  23   1.0000      -7.977858      -217.0886
  24   1.0000      -7.977081      -217.0674
  25   1.0000      -7.977001      -217.0652
  26   1.0000      -7.976958      -217.0641
  27   1.0000      -7.976276      -217.0455
  28   1.0000      -7.976210      -217.0437
  29   1.0000      -4.589384      -124.8835
  30   1.0000      -3.202383       -87.1413
  31   1.0000      -3.201020       -87.1042
  32   1.0000      -3.200751       -87.0969
  33   1.0000      -1.440999       -39.2116
  34   1.0000      -1.147493       -31.2249
  35   1.0000      -1.094419       -29.7807
  36   1.0000      -1.059288       -28.8247
  37   1.0000      -1.053832       -28.6762
  38   1.0000      -1.051584       -28.6151
  39   1.0000      -1.030930       -28.0530
  40   1.0000      -1.005227       -27.3536
  41   1.0000      -0.972658       -26.4674
  42   1.0000      -0.935127       -25.4461
  43   1.0000      -0.918630       -24.9972
  44   1.0000      -0.918496       -24.9935
  45   1.0000      -0.912008       -24.8170
  46   1.0000      -0.908316       -24.7165
  47   1.0000      -0.907997       -24.7079
  48   1.0000      -0.802061       -21.8252
  49   1.0000      -0.744704       -20.2644
  50   1.0000      -0.699825       -19.0432
  51   1.0000      -0.694599       -18.9010
  52   1.0000      -0.687162       -18.6986
  53   1.0000      -0.666609       -18.1394
  54   1.0000      -0.634691       -17.2708
  55   1.0000      -0.620080       -16.8732
  56   1.0000      -0.603669       -16.4267
  57   1.0000      -0.599354       -16.3093
  58   1.0000      -0.583088       -15.8666
  59   1.0000      -0.576595       -15.6899
  60   1.0000      -0.566304       -15.4099
  61   1.0000      -0.562173       -15.2975
  62   1.0000      -0.551298       -15.0016
  63   1.0000      -0.548007       -14.9120
  64   1.0000      -0.539383       -14.6774
  65   1.0000      -0.524910       -14.2835
  66   1.0000      -0.508849       -13.8465
  67   1.0000      -0.492526       -13.4023
  68   1.0000      -0.471972       -12.8430
  69   1.0000      -0.466902       -12.7050
  70   1.0000      -0.439977       -11.9724
  71   1.0000      -0.434610       -11.8263
  72   1.0000      -0.433196       -11.7879
  73   1.0000      -0.424634       -11.5549
  74   1.0000      -0.423057       -11.5120
  75   1.0000      -0.422701       -11.5023
  76   1.0000      -0.369167       -10.0455
  77   0.0000       0.011967         0.3256
  78   0.0000       0.022536         0.6132
  79   0.0000       0.023140         0.6297
  80   0.0000       0.030318         0.8250
  81   0.0000       0.039021         1.0618

                 SPIN DOWN ORBITALS
  NO   OCC          E(Eh)            E(eV)
   0   1.0000    -261.562895     -7117.4882
   1   1.0000    -104.785327     -2851.3537
   2   1.0000    -104.782860     -2851.2866
   3   1.0000    -104.782090     -2851.2656
   4   1.0000     -32.072221      -872.7295
   5   1.0000     -27.550156      -749.6779
   6   1.0000     -27.550103      -749.6764
   7   1.0000     -27.549858      -749.6697
   8   1.0000     -20.585874      -560.1701
   9   1.0000     -11.416350      -310.6547
  10   1.0000     -11.300580      -307.5044
  11   1.0000     -11.271180      -306.7044
  12   1.0000     -11.265421      -306.5477
  13   1.0000     -11.257828      -306.3411
  14   1.0000     -11.251258      -306.1623
  15   1.0000     -11.250061      -306.1297
  16   1.0000     -11.242262      -305.9175
  17   1.0000     -10.511890      -286.0431
  18   1.0000     -10.509382      -285.9748
  19   1.0000     -10.508581      -285.9530
  20   1.0000      -7.977788      -217.0867
  21   1.0000      -7.977139      -217.0690
  22   1.0000      -7.977078      -217.0673
  23   1.0000      -7.975270      -217.0181
  24   1.0000      -7.974620      -217.0004
  25   1.0000      -7.974564      -216.9989
  26   1.0000      -7.974524      -216.9978
  27   1.0000      -7.973758      -216.9770
  28   1.0000      -7.973671      -216.9746
  29   1.0000      -4.147138      -112.8494
  30   1.0000      -2.668750       -72.6204
  31   1.0000      -2.668718       -72.6195
  32   1.0000      -2.668195       -72.6053
  33   1.0000      -1.430676       -38.9307
  34   1.0000      -1.146887       -31.2084
  35   1.0000      -1.091812       -29.7097
  36   1.0000      -1.044240       -28.4152
  37   1.0000      -1.032052       -28.0836
  38   1.0000      -1.030810       -28.0498
  39   1.0000      -1.029738       -28.0206
  40   1.0000      -1.004396       -27.3310
  41   1.0000      -0.972559       -26.4647
  42   1.0000      -0.912630       -24.8339
  43   1.0000      -0.815769       -22.1982
  44   1.0000      -0.744755       -20.2658
  45   1.0000      -0.702618       -19.1192
  46   1.0000      -0.694543       -18.8995
  47   1.0000      -0.685560       -18.6550
  48   1.0000      -0.666439       -18.1347
  49   1.0000      -0.634601       -17.2684
  50   1.0000      -0.619670       -16.8621
  51   1.0000      -0.603255       -16.4154
  52   1.0000      -0.599300       -16.3078
  53   1.0000      -0.582756       -15.8576
  54   1.0000      -0.576173       -15.6785
  55   1.0000      -0.566028       -15.4024
  56   1.0000      -0.561985       -15.2924
  57   1.0000      -0.549645       -14.9566
  58   1.0000      -0.546671       -14.8757
  59   1.0000      -0.538271       -14.6471
  60   1.0000      -0.515218       -14.0198
  61   1.0000      -0.508820       -13.8457
  62   1.0000      -0.491894       -13.3851
  63   1.0000      -0.477528       -12.9942
  64   1.0000      -0.476370       -12.9627
  65   1.0000      -0.447612       -12.1801
  66   1.0000      -0.444513       -12.0958
  67   1.0000      -0.442326       -12.0363
  68   1.0000      -0.427116       -11.6224
  69   1.0000      -0.423151       -11.5145
  70   1.0000      -0.408253       -11.1091
  71   1.0000      -0.367747       -10.0069
  72   0.0000       0.011958         0.3254
  73   0.0000       0.022511         0.6126
  74   0.0000       0.023117         0.6291
  75   0.0000       0.030309         0.8248
  76   0.0000       0.038943         1.0597

E(0)                                       ...  -3028.438589692
E(0)                                       ...  -3028.438589692
E(CORR)(strong-pairs)                      ...     -2.871951171
E(CORR)(weak-pairs)                        ...     -0.036239522
E(CORR)(corrected)                         ...     -2.908190693
E(TOT)                                     ...  -3031.346780385
E(CCSD(T))                                 ...  -3031.466111028
FINAL SINGLE POINT ENERGY     -3031.466111027876

DIPOLE MOMENT
-------------
                                X             Y             Z
Electronic contribution:     42.55896       2.88181       2.24733
Nuclear contribution   :    -46.45963      -3.64660      -2.83115
                        -----------------------------------------
Total Dipole Moment    :     -3.90066      -0.76479      -0.58381
                        -----------------------------------------
Magnitude (a.u.)       :      4.01758
Magnitude (Debye)      :     10.21187

Rotational constants in cm-1:     0.019308     0.011070     0.010415
Rotational constants in MHz :   578.826627   331.875646   312.237527

                             ****ORCA TERMINATED NORMALLY****
TOTAL RUN TIME: 0 days 18 hours 59 minutes 41 seconds 706 msec
