                         Program Version 4.1.2  - RELEASE  -
|  1> ! aug-cc-pVTZ aug-cc-pVTZ/C DLPNO-CCSD(T1) TightSCF NormalPNO UNO MiniPrint AutoAux
|  2> %pal nproc 10 end
|  3> %maxcore 20000
|  4> %mdci
|  5>      density none
|  6> end
|  7>
|  8> * xyz 0 6
|  9>  O      0.24973000      0.33167700     -0.81456100
| 10>  C      1.00304400      1.31736000     -0.64090000
| 11>  C      3.18403300      0.00411500      0.39889400
| 12>  C      2.53442000     -0.98809800     -0.24152000
| 13>  C      2.79028000     -1.28452200     -1.69422900
| 14> Fe     -1.46816600     -0.14242700      0.04021100
| 15> Cl     -2.10000800     -1.96112000     -0.96964900
| 16>  C      1.60939900     -1.96176800      0.42949800
| 17> Cl     -2.62989200      1.65444500     -0.42901000
| 18> Cl     -1.14856400     -0.35764500      2.19941900
| 19>  H      3.90007400      0.58816800     -0.18019600
| 20>  H      2.12134700     -2.92756600      0.54177600
| 21>  H      1.27471100     -1.64497600      1.41704300
| 22>  H      0.72742100     -2.15618800     -0.19076000
| 23>  H      3.16993900     -2.30868600     -1.80456400
| 24>  H      1.85749600     -1.23739800     -2.27058100
| 25>  H      3.52419000     -0.60552300     -2.13822000
| 26>  C      3.16653000      0.29010500      1.87551800
| 27>  H      4.03495000     -0.17348300      2.36346200
| 28>  H      3.23338500      1.36472900      2.07811600
| 29>  H      2.27121200     -0.09191700      2.37286500
| 30>  C      0.89258200      2.16983000      0.58258400
| 31>  H      1.77996600      2.78551200      0.73378600
| 32>  H      0.03039900      2.83383500      0.41900700
| 33>  H      0.67810500      1.57291700      1.46965400
| 34>  C      1.77184300      1.84287900     -1.81323700
| 35>  H      1.15825700      2.65030400     -2.24029400
| 36>  H      2.72841300      2.27544600     -1.51599200
| 37>  H      1.90571200      1.07853600     -2.57663400
| 38> *
| 39>
| 40>
| 41>                          ****END OF INPUT****

CARTESIAN COORDINATES (ANGSTROEM)
---------------------------------
  O      0.249730    0.331677   -0.814561
  C      1.003044    1.317360   -0.640900
  C      3.184033    0.004115    0.398894
  C      2.534420   -0.988098   -0.241520
  C      2.790280   -1.284522   -1.694229
  Fe    -1.468166   -0.142427    0.040211
  Cl    -2.100008   -1.961120   -0.969649
  C      1.609399   -1.961768    0.429498
  Cl    -2.629892    1.654445   -0.429010
  Cl    -1.148564   -0.357645    2.199419
  H      3.900074    0.588168   -0.180196
  H      2.121347   -2.927566    0.541776
  H      1.274711   -1.644976    1.417043
  H      0.727421   -2.156188   -0.190760
  H      3.169939   -2.308686   -1.804564
  H      1.857496   -1.237398   -2.270581
  H      3.524190   -0.605523   -2.138220
  C      3.166530    0.290105    1.875518
  H      4.034950   -0.173483    2.363462
  H      3.233385    1.364729    2.078116
  H      2.271212   -0.091917    2.372865
  C      0.892582    2.169830    0.582584
  H      1.779966    2.785512    0.733786
  H      0.030399    2.833835    0.419007
  H      0.678105    1.572917    1.469654
  C      1.771843    1.842879   -1.813237
  H      1.158257    2.650304   -2.240294
  H      2.728413    2.275446   -1.515992
  H      1.905712    1.078536   -2.576634

ORBITAL ENERGIES
----------------
                 SPIN UP ORBITALS
  NO   OCC          E(Eh)            E(eV)
   0   1.0000    -261.577796     -7117.8937
   1   1.0000    -104.794602     -2851.6061
   2   1.0000    -104.791947     -2851.5338
   3   1.0000    -104.790340     -2851.4901
   4   1.0000     -32.245456      -877.4435
   5   1.0000     -27.721971      -754.3532
   6   1.0000     -27.720777      -754.3207
   7   1.0000     -27.720600      -754.3159
   8   1.0000     -20.621666      -561.1441
   9   1.0000     -11.422652      -310.8262
  10   1.0000     -11.278778      -306.9112
  11   1.0000     -11.272885      -306.7508
  12   1.0000     -11.263217      -306.4877
  13   1.0000     -11.240860      -305.8794
  14   1.0000     -11.239139      -305.8325
  15   1.0000     -11.238025      -305.8022
  16   1.0000     -11.227832      -305.5249
  17   1.0000     -10.521325      -286.2998
  18   1.0000     -10.518640      -286.2268
  19   1.0000     -10.516978      -286.1815
  20   1.0000      -7.988151      -217.3686
  21   1.0000      -7.987413      -217.3486
  22   1.0000      -7.987355      -217.3470
  23   1.0000      -7.985539      -217.2976
  24   1.0000      -7.984729      -217.2755
  25   1.0000      -7.984668      -217.2739
  26   1.0000      -7.983759      -217.2491
  27   1.0000      -7.983104      -217.2313
  28   1.0000      -7.983062      -217.2302
  29   1.0000      -4.600253      -125.1792
  30   1.0000      -3.213407       -87.4413
  31   1.0000      -3.211611       -87.3924
  32   1.0000      -3.211499       -87.3893
  33   1.0000      -1.467933       -39.9445
  34   1.0000      -1.123206       -30.5640
  35   1.0000      -1.102976       -30.0135
  36   1.0000      -1.068099       -29.0645
  37   1.0000      -1.062421       -28.9099
  38   1.0000      -1.059958       -28.8429
  39   1.0000      -1.021259       -27.7899
  40   1.0000      -1.010189       -27.4886
  41   1.0000      -0.956386       -26.0246
  42   1.0000      -0.944021       -25.6881
  43   1.0000      -0.929140       -25.2832
  44   1.0000      -0.929013       -25.2797
  45   1.0000      -0.918099       -24.9828
  46   1.0000      -0.917610       -24.9694
  47   1.0000      -0.894506       -24.3407
  48   1.0000      -0.815451       -22.1895
  49   1.0000      -0.726778       -19.7766
  50   1.0000      -0.714338       -19.4381
  51   1.0000      -0.704989       -19.1837
  52   1.0000      -0.687071       -18.6961
  53   1.0000      -0.652822       -17.7642
  54   1.0000      -0.622136       -16.9292
  55   1.0000      -0.619321       -16.8526
  56   1.0000      -0.603242       -16.4151
  57   1.0000      -0.600193       -16.3321
  58   1.0000      -0.586271       -15.9532
  59   1.0000      -0.579802       -15.7772
  60   1.0000      -0.560669       -15.2566
  61   1.0000      -0.550823       -14.9887
  62   1.0000      -0.549712       -14.9584
  63   1.0000      -0.537786       -14.6339
  64   1.0000      -0.535566       -14.5735
  65   1.0000      -0.524769       -14.2797
  66   1.0000      -0.504793       -13.7361
  67   1.0000      -0.490877       -13.3574
  68   1.0000      -0.478042       -13.0082
  69   1.0000      -0.477437       -12.9917
  70   1.0000      -0.448015       -12.1911
  71   1.0000      -0.441665       -12.0183
  72   1.0000      -0.440026       -11.9737
  73   1.0000      -0.431437       -11.7400
  74   1.0000      -0.430183       -11.7059
  75   1.0000      -0.429311       -11.6821
  76   1.0000      -0.356873        -9.7110
  77   0.0000       0.012880         0.3505
  78   0.0000       0.023840         0.6487
  79   0.0000       0.024664         0.6711
  80   0.0000       0.030728         0.8361
  81   0.0000       0.039519         1.0754

                 SPIN DOWN ORBITALS
  NO   OCC          E(Eh)            E(eV)
   0   1.0000    -261.574215     -7117.7963
   1   1.0000    -104.793103     -2851.5653
   2   1.0000    -104.790392     -2851.4915
   3   1.0000    -104.788774     -2851.4475
   4   1.0000     -32.083483      -873.0360
   5   1.0000     -27.561429      -749.9846
   6   1.0000     -27.561311      -749.9814
   7   1.0000     -27.561221      -749.9789
   8   1.0000     -20.618301      -561.0525
   9   1.0000     -11.422554      -310.8235
  10   1.0000     -11.278676      -306.9084
  11   1.0000     -11.272882      -306.7507
  12   1.0000     -11.263282      -306.4895
  13   1.0000     -11.240761      -305.8767
  14   1.0000     -11.239128      -305.8322
  15   1.0000     -11.238035      -305.8025
  16   1.0000     -11.227839      -305.5250
  17   1.0000     -10.519724      -286.2563
  18   1.0000     -10.516980      -286.1816
  19   1.0000     -10.515316      -286.1363
  20   1.0000      -7.985651      -217.3006
  21   1.0000      -7.984892      -217.2799
  22   1.0000      -7.984848      -217.2788
  23   1.0000      -7.982838      -217.2241
  24   1.0000      -7.982191      -217.2065
  25   1.0000      -7.982093      -217.2038
  26   1.0000      -7.981312      -217.1825
  27   1.0000      -7.980399      -217.1577
  28   1.0000      -7.980320      -217.1556
  29   1.0000      -4.158200      -113.1504
  30   1.0000      -2.679750       -72.9197
  31   1.0000      -2.679679       -72.9178
  32   1.0000      -2.679278       -72.9069
  33   1.0000      -1.459668       -39.7196
  34   1.0000      -1.122909       -30.5559
  35   1.0000      -1.100757       -29.9531
  36   1.0000      -1.052425       -28.6379
  37   1.0000      -1.039845       -28.2956
  38   1.0000      -1.037176       -28.2230
  39   1.0000      -1.020434       -27.7674
  40   1.0000      -1.009813       -27.4784
  41   1.0000      -0.956186       -26.0191
  42   1.0000      -0.894629       -24.3441
  43   1.0000      -0.827629       -22.5209
  44   1.0000      -0.726850       -19.7786
  45   1.0000      -0.716164       -19.4878
  46   1.0000      -0.704201       -19.1623
  47   1.0000      -0.686465       -18.6797
  48   1.0000      -0.652771       -17.7628
  49   1.0000      -0.621574       -16.9139
  50   1.0000      -0.619253       -16.8507
  51   1.0000      -0.603052       -16.4099
  52   1.0000      -0.600134       -16.3305
  53   1.0000      -0.586018       -15.9464
  54   1.0000      -0.578791       -15.7497
  55   1.0000      -0.559552       -15.2262
  56   1.0000      -0.550280       -14.9739
  57   1.0000      -0.547885       -14.9087
  58   1.0000      -0.537767       -14.6334
  59   1.0000      -0.526649       -14.3308
  60   1.0000      -0.522872       -14.2281
  61   1.0000      -0.506190       -13.7741
  62   1.0000      -0.490557       -13.3487
  63   1.0000      -0.486422       -13.2362
  64   1.0000      -0.484306       -13.1786
  65   1.0000      -0.454962       -12.3801
  66   1.0000      -0.452050       -12.3009
  67   1.0000      -0.449051       -12.2193
  68   1.0000      -0.432483       -11.7685
  69   1.0000      -0.430730       -11.7208
  70   1.0000      -0.414441       -11.2775
  71   1.0000      -0.356340        -9.6965
  72   0.0000       0.012864         0.3501
  73   0.0000       0.023816         0.6481
  74   0.0000       0.024626         0.6701
  75   0.0000       0.030671         0.8346
  76   0.0000       0.039416         1.0726

E(0)                                       ...  -3028.465172575
E(0)                                       ...  -3028.465172575
E(CORR)(strong-pairs)                      ...     -2.867498831
E(CORR)(weak-pairs)                        ...     -0.035328058
E(CORR)(corrected)                         ...     -2.902826889
E(TOT)                                     ...  -3031.367999464
E(CCSD(T))                                 ...  -3031.485913993
FINAL SINGLE POINT ENERGY     -3031.485913992636

DIPOLE MOMENT
-------------
                                X             Y             Z
Electronic contribution:    -43.43945      -3.88207       2.10289
Nuclear contribution   :     46.66065       5.30354      -2.73049
                        -----------------------------------------
Total Dipole Moment    :      3.22119       1.42147      -0.62760
                        -----------------------------------------
Magnitude (a.u.)       :      3.57639
Magnitude (Debye)      :      9.09046

Rotational constants in cm-1:     0.018828     0.010794     0.010175
Rotational constants in MHz :   564.456496   323.597577   305.042322

                             ****ORCA TERMINATED NORMALLY****
TOTAL RUN TIME: 0 days 17 hours 55 minutes 34 seconds 648 msec
