                         Program Version 4.1.2  - RELEASE  -
|  1> ! aug-cc-pVTZ aug-cc-pVTZ/C DLPNO-CCSD(T1) TightSCF NormalPNO UNO MiniPrint AutoAux
|  2> %pal nproc 10 end
|  3> %maxcore 20000
|  4> %mdci
|  5>      density none
|  6> end
|  7>
|  8> * xyz 0 6
|  9>  O      0.23280100      0.29863100     -0.76528500
| 10>  C      1.09721900      1.21479400     -0.58183500
| 11>  C      2.81732500      0.31184100      0.64939100
| 12>  C      2.79712100     -0.85493800     -0.05566000
| 13>  C      3.59302200     -1.03554900     -1.31334400
| 14> Fe     -1.49546100     -0.17002400     -0.03523300
| 15> Cl     -1.98451600     -2.04871800     -1.03395300
| 16>  C      1.91250000     -2.00108700      0.31288000
| 17> Cl     -2.72418100      1.56109100     -0.57414900
| 18> Cl     -1.27047000     -0.39632400      2.14220400
| 19>  H      3.52760700      1.06813000      0.31778900
| 20>  H      2.42847500     -2.95792600      0.17551100
| 21>  H      1.52362000     -1.94616300      1.32981800
| 22>  H      1.05103900     -2.00883800     -0.37306700
| 23>  H      4.30197900     -1.86266500     -1.17545100
| 24>  H      2.94615900     -1.32362100     -2.15282400
| 25>  H      4.16310200     -0.14427500     -1.58536700
| 26>  C      2.37860400      0.42368500      2.09333900
| 27>  H      3.06488900     -0.15071500      2.72817700
| 28>  H      2.41504100      1.45877500      2.43925600
| 29>  H      1.37064900      0.04363000      2.27034600
| 30>  C      0.80218500      2.29261300      0.42945400
| 31>  H      1.67333800      2.90933600      0.65532900
| 32>  H      0.03881600      2.92670600     -0.04386500
| 33>  H      0.36682900      1.89134600      1.34406100
| 34>  C      1.88144700      1.63065800     -1.80221800
| 35>  H      1.22575600      2.31475200     -2.35836300
| 36>  H      2.79874000      2.16786400     -1.55615900
| 37>  H      2.09284400      0.78031200     -2.44864300
| 38> *
| 39>
| 40>
| 41>                          ****END OF INPUT****

CARTESIAN COORDINATES (ANGSTROEM)
---------------------------------
  O      0.232801    0.298631   -0.765285
  C      1.097219    1.214794   -0.581835
  C      2.817325    0.311841    0.649391
  C      2.797121   -0.854938   -0.055660
  C      3.593022   -1.035549   -1.313344
  Fe    -1.495461   -0.170024   -0.035233
  Cl    -1.984516   -2.048718   -1.033953
  C      1.912500   -2.001087    0.312880
  Cl    -2.724181    1.561091   -0.574149
  Cl    -1.270470   -0.396324    2.142204
  H      3.527607    1.068130    0.317789
  H      2.428475   -2.957926    0.175511
  H      1.523620   -1.946163    1.329818
  H      1.051039   -2.008838   -0.373067
  H      4.301979   -1.862665   -1.175451
  H      2.946159   -1.323621   -2.152824
  H      4.163102   -0.144275   -1.585367
  C      2.378604    0.423685    2.093339
  H      3.064889   -0.150715    2.728177
  H      2.415041    1.458775    2.439256
  H      1.370649    0.043630    2.270346
  C      0.802185    2.292613    0.429454
  H      1.673338    2.909336    0.655329
  H      0.038816    2.926706   -0.043865
  H      0.366829    1.891346    1.344061
  C      1.881447    1.630658   -1.802218
  H      1.225756    2.314752   -2.358363
  H      2.798740    2.167864   -1.556159
  H      2.092844    0.780312   -2.448643

ORBITAL ENERGIES
----------------
                 SPIN UP ORBITALS
  NO   OCC          E(Eh)            E(eV)
   0   1.0000    -261.566785     -7117.5941
   1   1.0000    -104.788143     -2851.4303
   2   1.0000    -104.784422     -2851.3291
   3   1.0000    -104.782204     -2851.2687
   4   1.0000     -32.234587      -877.1477
   5   1.0000     -27.710922      -754.0525
   6   1.0000     -27.710020      -754.0280
   7   1.0000     -27.709827      -754.0227
   8   1.0000     -20.600405      -560.5655
   9   1.0000     -11.415039      -310.6190
  10   1.0000     -11.296784      -307.4011
  11   1.0000     -11.271601      -306.7158
  12   1.0000     -11.267403      -306.6016
  13   1.0000     -11.258624      -306.3627
  14   1.0000     -11.257012      -306.3189
  15   1.0000     -11.242014      -305.9107
  16   1.0000     -11.239687      -305.8474
  17   1.0000     -10.514842      -286.1234
  18   1.0000     -10.511091      -286.0213
  19   1.0000     -10.508822      -285.9596
  20   1.0000      -7.981687      -217.1928
  21   1.0000      -7.980898      -217.1713
  22   1.0000      -7.980876      -217.1707
  23   1.0000      -7.977947      -217.0910
  24   1.0000      -7.977193      -217.0705
  25   1.0000      -7.977136      -217.0689
  26   1.0000      -7.975634      -217.0280
  27   1.0000      -7.974948      -217.0094
  28   1.0000      -7.974876      -217.0074
  29   1.0000      -4.589692      -124.8919
  30   1.0000      -3.202774       -87.1519
  31   1.0000      -3.201236       -87.1101
  32   1.0000      -3.201040       -87.1047
  33   1.0000      -1.443083       -39.2683
  34   1.0000      -1.144900       -31.1543
  35   1.0000      -1.092818       -29.7371
  36   1.0000      -1.060272       -28.8515
  37   1.0000      -1.054433       -28.6926
  38   1.0000      -1.051091       -28.6016
  39   1.0000      -1.028692       -27.9921
  40   1.0000      -1.002870       -27.2895
  41   1.0000      -0.973812       -26.4988
  42   1.0000      -0.935600       -25.4590
  43   1.0000      -0.918838       -25.0028
  44   1.0000      -0.918694       -24.9989
  45   1.0000      -0.908846       -24.7309
  46   1.0000      -0.907870       -24.7044
  47   1.0000      -0.906656       -24.6714
  48   1.0000      -0.804688       -21.8967
  49   1.0000      -0.745187       -20.2776
  50   1.0000      -0.699659       -19.0387
  51   1.0000      -0.690491       -18.7892
  52   1.0000      -0.682149       -18.5622
  53   1.0000      -0.666540       -18.1375
  54   1.0000      -0.633763       -17.2456
  55   1.0000      -0.622292       -16.9334
  56   1.0000      -0.605668       -16.4811
  57   1.0000      -0.595940       -16.2164
  58   1.0000      -0.582928       -15.8623
  59   1.0000      -0.575747       -15.6669
  60   1.0000      -0.564640       -15.3646
  61   1.0000      -0.561047       -15.2669
  62   1.0000      -0.552425       -15.0323
  63   1.0000      -0.543411       -14.7870
  64   1.0000      -0.535982       -14.5848
  65   1.0000      -0.528446       -14.3797
  66   1.0000      -0.507666       -13.8143
  67   1.0000      -0.493632       -13.4324
  68   1.0000      -0.471864       -12.8401
  69   1.0000      -0.468263       -12.7421
  70   1.0000      -0.440247       -11.9797
  71   1.0000      -0.435150       -11.8410
  72   1.0000      -0.432780       -11.7766
  73   1.0000      -0.424595       -11.5538
  74   1.0000      -0.423123       -11.5138
  75   1.0000      -0.421789       -11.4775
  76   1.0000      -0.369640       -10.0584
  77   0.0000       0.011521         0.3135
  78   0.0000       0.021813         0.5936
  79   0.0000       0.023255         0.6328
  80   0.0000       0.029360         0.7989
  81   0.0000       0.038076         1.0361

                 SPIN DOWN ORBITALS
  NO   OCC          E(Eh)            E(eV)
   0   1.0000    -261.563214     -7117.4969
   1   1.0000    -104.786682     -2851.3906
   2   1.0000    -104.782900     -2851.2877
   3   1.0000    -104.780687     -2851.2274
   4   1.0000     -32.072549      -872.7384
   5   1.0000     -27.550472      -749.6865
   6   1.0000     -27.550416      -749.6849
   7   1.0000     -27.550227      -749.6798
   8   1.0000     -20.596479      -560.4587
   9   1.0000     -11.414926      -310.6159
  10   1.0000     -11.296595      -307.3960
  11   1.0000     -11.271491      -306.7129
  12   1.0000     -11.267388      -306.6012
  13   1.0000     -11.258650      -306.3634
  14   1.0000     -11.257102      -306.3213
  15   1.0000     -11.242049      -305.9117
  16   1.0000     -11.239676      -305.8471
  17   1.0000     -10.513279      -286.0809
  18   1.0000     -10.509465      -285.9771
  19   1.0000     -10.507207      -285.9156
  20   1.0000      -7.979176      -217.1244
  21   1.0000      -7.978509      -217.1063
  22   1.0000      -7.978457      -217.1049
  23   1.0000      -7.975376      -217.0210
  24   1.0000      -7.974669      -217.0018
  25   1.0000      -7.974583      -216.9994
  26   1.0000      -7.973177      -216.9612
  27   1.0000      -7.972368      -216.9392
  28   1.0000      -7.972276      -216.9367
  29   1.0000      -4.147470      -112.8584
  30   1.0000      -2.669106       -72.6301
  31   1.0000      -2.669045       -72.6284
  32   1.0000      -2.668506       -72.6137
  33   1.0000      -1.433229       -39.0002
  34   1.0000      -1.144379       -31.1401
  35   1.0000      -1.090083       -29.6627
  36   1.0000      -1.044957       -28.4347
  37   1.0000      -1.032834       -28.1048
  38   1.0000      -1.029242       -28.0071
  39   1.0000      -1.027800       -27.9679
  40   1.0000      -1.002210       -27.2715
  41   1.0000      -0.973736       -26.4967
  42   1.0000      -0.907183       -24.6857
  43   1.0000      -0.819282       -22.2938
  44   1.0000      -0.745293       -20.2805
  45   1.0000      -0.702417       -19.1137
  46   1.0000      -0.689411       -18.7598
  47   1.0000      -0.681497       -18.5445
  48   1.0000      -0.666420       -18.1342
  49   1.0000      -0.633729       -17.2447
  50   1.0000      -0.621794       -16.9199
  51   1.0000      -0.605190       -16.4681
  52   1.0000      -0.595828       -16.2133
  53   1.0000      -0.582657       -15.8549
  54   1.0000      -0.574214       -15.6251
  55   1.0000      -0.564502       -15.3609
  56   1.0000      -0.560955       -15.2644
  57   1.0000      -0.552289       -15.0285
  58   1.0000      -0.541316       -14.7300
  59   1.0000      -0.535139       -14.5619
  60   1.0000      -0.517534       -14.0828
  61   1.0000      -0.507525       -13.8105
  62   1.0000      -0.494333       -13.4515
  63   1.0000      -0.478765       -13.0279
  64   1.0000      -0.475800       -12.9472
  65   1.0000      -0.448782       -12.2120
  66   1.0000      -0.444752       -12.1023
  67   1.0000      -0.442290       -12.0353
  68   1.0000      -0.427094       -11.6218
  69   1.0000      -0.422318       -11.4919
  70   1.0000      -0.407911       -11.0998
  71   1.0000      -0.368310       -10.0222
  72   0.0000       0.011506         0.3131
  73   0.0000       0.021789         0.5929
  74   0.0000       0.023228         0.6321
  75   0.0000       0.029149         0.7932
  76   0.0000       0.037515         1.0208

E(0)                                       ...  -3028.446751837
E(0)                                       ...  -3028.446751837
E(CORR)(strong-pairs)                      ...     -2.871158604
E(CORR)(weak-pairs)                        ...     -0.036160977
E(CORR)(corrected)                         ...     -2.907319581
E(TOT)                                     ...  -3031.354071418
E(CCSD(T))                                 ...  -3031.473320856
FINAL SINGLE POINT ENERGY     -3031.473320855640

DIPOLE MOMENT
-------------
                                X             Y             Z
Electronic contribution:    -43.51953      -5.70003       0.55114
Nuclear contribution   :     47.47150       6.82805      -1.03564
                        -----------------------------------------
Total Dipole Moment    :      3.95197       1.12802      -0.48450
                        -----------------------------------------
Magnitude (a.u.)       :      4.13827
Magnitude (Debye)      :     10.51864

Rotational constants in cm-1:     0.019188     0.010592     0.010000
Rotational constants in MHz :   575.235556   317.527322   299.796505

                             ****ORCA TERMINATED NORMALLY****
TOTAL RUN TIME: 0 days 18 hours 23 minutes 29 seconds 334 msec
