                         Program Version 4.1.2  - RELEASE  -
|  1> ! aug-cc-pVTZ aug-cc-pVTZ/C DLPNO-CCSD(T1) TightSCF NormalPNO UNO MiniPrint AutoAux
|  2> %pal nproc 10 end
|  3> %maxcore 20000
|  4> %mdci
|  5>      density none
|  6> end
|  7>
|  8> * xyz 0 6
|  9>  O     -0.31736000     -0.31807200     -0.64724700
| 10>  C     -1.41535400     -1.19644600     -0.45593200
| 11>  C     -2.72471900     -0.17055800     -0.10505500
| 12>  C     -2.04659400      1.14299500     -0.24104400
| 13>  C     -1.95037300      1.80976700     -1.55113200
| 14> Fe      1.36667500      0.02995600      0.01906200
| 15> Cl      1.69409200      2.09153000     -0.77015700
| 16>  C     -1.57326300      1.87866000      0.94213700
| 17> Cl      2.75687400     -1.52494500     -0.65985200
| 18> Cl      1.18707800      0.09464300      2.24739900
| 19>  H     -3.43101500     -0.29070800     -0.93184100
| 20>  H     -2.47032000      2.28410900      1.44041700
| 21>  H     -1.08878700      1.21679000      1.66804300
| 22>  H     -0.90006200      2.69674300      0.68277800
| 23>  H     -2.57816100      2.71535000     -1.50638600
| 24>  H     -0.91828700      2.15381500     -1.70111300
| 25>  H     -2.27749500      1.18376500     -2.38099700
| 26>  C     -3.42505500     -0.42938100      1.22650500
| 27>  H     -4.23658900      0.28952300      1.38796300
| 28>  H     -3.86893700     -1.42813900      1.22001900
| 29>  H     -2.74374600     -0.37308300      2.07810300
| 30>  C     -1.14636800     -2.17920500      0.67205100
| 31>  H     -1.98219400     -2.86912400      0.82232500
| 32>  H     -0.26426300     -2.76656900      0.39092100
| 33>  H     -0.91460300     -1.67267600      1.61037700
| 34>  C     -1.70131100     -1.91192100     -1.76987400
| 35>  H     -0.82642600     -2.51517000     -2.03419100
| 36>  H     -2.57395700     -2.56930200     -1.68737300
| 37>  H     -1.86834400     -1.19396300     -2.57826200
| 38> *
| 39>
| 40>
| 41>                          ****END OF INPUT****

CARTESIAN COORDINATES (ANGSTROEM)
---------------------------------
  O     -0.317360   -0.318072   -0.647247
  C     -1.415354   -1.196446   -0.455932
  C     -2.724719   -0.170558   -0.105055
  C     -2.046594    1.142995   -0.241044
  C     -1.950373    1.809767   -1.551132
  Fe     1.366675    0.029956    0.019062
  Cl     1.694092    2.091530   -0.770157
  C     -1.573263    1.878660    0.942137
  Cl     2.756874   -1.524945   -0.659852
  Cl     1.187078    0.094643    2.247399
  H     -3.431015   -0.290708   -0.931841
  H     -2.470320    2.284109    1.440417
  H     -1.088787    1.216790    1.668043
  H     -0.900062    2.696743    0.682778
  H     -2.578161    2.715350   -1.506386
  H     -0.918287    2.153815   -1.701113
  H     -2.277495    1.183765   -2.380997
  C     -3.425055   -0.429381    1.226505
  H     -4.236589    0.289523    1.387963
  H     -3.868937   -1.428139    1.220019
  H     -2.743746   -0.373083    2.078103
  C     -1.146368   -2.179205    0.672051
  H     -1.982194   -2.869124    0.822325
  H     -0.264263   -2.766569    0.390921
  H     -0.914603   -1.672676    1.610377
  C     -1.701311   -1.911921   -1.769874
  H     -0.826426   -2.515170   -2.034191
  H     -2.573957   -2.569302   -1.687373
  H     -1.868344   -1.193963   -2.578262

ORBITAL ENERGIES
----------------
                 SPIN UP ORBITALS
  NO   OCC          E(Eh)            E(eV)
   0   1.0000    -261.543419     -7116.9582
   1   1.0000    -104.773499     -2851.0318
   2   1.0000    -104.773383     -2851.0287
   3   1.0000    -104.767907     -2850.8797
   4   1.0000     -32.211270      -876.5132
   5   1.0000     -27.687240      -753.4081
   6   1.0000     -27.687018      -753.4021
   7   1.0000     -27.686674      -753.3927
   8   1.0000     -20.539879      -558.9185
   9   1.0000     -11.412562      -310.5516
  10   1.0000     -11.341852      -308.6275
  11   1.0000     -11.294868      -307.3490
  12   1.0000     -11.286206      -307.1133
  13   1.0000     -11.281407      -306.9827
  14   1.0000     -11.265388      -306.5468
  15   1.0000     -11.238413      -305.8128
  16   1.0000     -11.232432      -305.6500
  17   1.0000     -10.500011      -285.7198
  18   1.0000     -10.499998      -285.7195
  19   1.0000     -10.494462      -285.5688
  20   1.0000      -7.966897      -216.7903
  21   1.0000      -7.966865      -216.7894
  22   1.0000      -7.966077      -216.7680
  23   1.0000      -7.966003      -216.7660
  24   1.0000      -7.965981      -216.7654
  25   1.0000      -7.965976      -216.7652
  26   1.0000      -7.961251      -216.6366
  27   1.0000      -7.960590      -216.6187
  28   1.0000      -7.960495      -216.6161
  29   1.0000      -4.566760      -124.2679
  30   1.0000      -3.179263       -86.5122
  31   1.0000      -3.178911       -86.5026
  32   1.0000      -3.178482       -86.4909
  33   1.0000      -1.349957       -36.7342
  34   1.0000      -1.188038       -32.3282
  35   1.0000      -1.091850       -29.7107
  36   1.0000      -1.044003       -28.4088
  37   1.0000      -1.039506       -28.2864
  38   1.0000      -1.038530       -28.2598
  39   1.0000      -1.035180       -28.1687
  40   1.0000      -1.020100       -27.7583
  41   1.0000      -0.965413       -26.2702
  42   1.0000      -0.933906       -25.4129
  43   1.0000      -0.903247       -24.5786
  44   1.0000      -0.896387       -24.3919
  45   1.0000      -0.896246       -24.3881
  46   1.0000      -0.888795       -24.1853
  47   1.0000      -0.888131       -24.1673
  48   1.0000      -0.798847       -21.7377
  49   1.0000      -0.760212       -20.6864
  50   1.0000      -0.706215       -19.2171
  51   1.0000      -0.690260       -18.7829
  52   1.0000      -0.675620       -18.3845
  53   1.0000      -0.635922       -17.3043
  54   1.0000      -0.634120       -17.2553
  55   1.0000      -0.626504       -17.0480
  56   1.0000      -0.603555       -16.4236
  57   1.0000      -0.600369       -16.3369
  58   1.0000      -0.596271       -16.2254
  59   1.0000      -0.583078       -15.8664
  60   1.0000      -0.578541       -15.7429
  61   1.0000      -0.556967       -15.1558
  62   1.0000      -0.549551       -14.9540
  63   1.0000      -0.538986       -14.6665
  64   1.0000      -0.526576       -14.3288
  65   1.0000      -0.522955       -14.2303
  66   1.0000      -0.502755       -13.6807
  67   1.0000      -0.469232       -12.7684
  68   1.0000      -0.462805       -12.5936
  69   1.0000      -0.446017       -12.1367
  70   1.0000      -0.431351       -11.7377
  71   1.0000      -0.424498       -11.5512
  72   1.0000      -0.419900       -11.4261
  73   1.0000      -0.414534       -11.2801
  74   1.0000      -0.411731       -11.2038
  75   1.0000      -0.410683       -11.1752
  76   1.0000      -0.408366       -11.1122
  77   0.0000       0.004678         0.1273
  78   0.0000       0.014128         0.3844
  79   0.0000       0.020488         0.5575
  80   0.0000       0.021089         0.5739
  81   0.0000       0.030258         0.8234

                 SPIN DOWN ORBITALS
  NO   OCC          E(Eh)            E(eV)
   0   1.0000    -261.539879     -7116.8619
   1   1.0000    -104.772248     -2850.9978
   2   1.0000    -104.772078     -2850.9932
   3   1.0000    -104.766478     -2850.8408
   4   1.0000     -32.049241      -872.1042
   5   1.0000     -27.527413      -749.0590
   6   1.0000     -27.527169      -749.0524
   7   1.0000     -27.526566      -749.0359
   8   1.0000     -20.533409      -558.7425
   9   1.0000     -11.412587      -310.5523
  10   1.0000     -11.341614      -308.6210
  11   1.0000     -11.294731      -307.3452
  12   1.0000     -11.286188      -307.1128
  13   1.0000     -11.281426      -306.9832
  14   1.0000     -11.265394      -306.5469
  15   1.0000     -11.238334      -305.8106
  16   1.0000     -11.232405      -305.6493
  17   1.0000     -10.498663      -285.6831
  18   1.0000     -10.498589      -285.6811
  19   1.0000     -10.492933      -285.5272
  20   1.0000      -7.964584      -216.7273
  21   1.0000      -7.964428      -216.7231
  22   1.0000      -7.964099      -216.7142
  23   1.0000      -7.964010      -216.7117
  24   1.0000      -7.964002      -216.7115
  25   1.0000      -7.963935      -216.7097
  26   1.0000      -7.958936      -216.5737
  27   1.0000      -7.958148      -216.5522
  28   1.0000      -7.958081      -216.5504
  29   1.0000      -4.124620      -112.2366
  30   1.0000      -2.646575       -72.0170
  31   1.0000      -2.646434       -72.0131
  32   1.0000      -2.645653       -71.9919
  33   1.0000      -1.332962       -36.2717
  34   1.0000      -1.186624       -32.2897
  35   1.0000      -1.089227       -29.6394
  36   1.0000      -1.036969       -28.2174
  37   1.0000      -1.030518       -28.0418
  38   1.0000      -1.022374       -27.8202
  39   1.0000      -1.017809       -27.6960
  40   1.0000      -1.014884       -27.6164
  41   1.0000      -0.964655       -26.2496
  42   1.0000      -0.931765       -25.3546
  43   1.0000      -0.802400       -21.8344
  44   1.0000      -0.766419       -20.8553
  45   1.0000      -0.706634       -19.2285
  46   1.0000      -0.689900       -18.7731
  47   1.0000      -0.676432       -18.4066
  48   1.0000      -0.638438       -17.3728
  49   1.0000      -0.633994       -17.2518
  50   1.0000      -0.624562       -16.9952
  51   1.0000      -0.603848       -16.4315
  52   1.0000      -0.599419       -16.3110
  53   1.0000      -0.595663       -16.2088
  54   1.0000      -0.582582       -15.8529
  55   1.0000      -0.577136       -15.7047
  56   1.0000      -0.556738       -15.1496
  57   1.0000      -0.547118       -14.8878
  58   1.0000      -0.538412       -14.6509
  59   1.0000      -0.524418       -14.2701
  60   1.0000      -0.517271       -14.0757
  61   1.0000      -0.498323       -13.5601
  62   1.0000      -0.467852       -12.7309
  63   1.0000      -0.463004       -12.5990
  64   1.0000      -0.453293       -12.3347
  65   1.0000      -0.438631       -11.9358
  66   1.0000      -0.434715       -11.8292
  67   1.0000      -0.429848       -11.6968
  68   1.0000      -0.429150       -11.6778
  69   1.0000      -0.409283       -11.1372
  70   1.0000      -0.399827       -10.8798
  71   1.0000      -0.397477       -10.8159
  72   0.0000       0.004633         0.1261
  73   0.0000       0.013732         0.3737
  74   0.0000       0.020453         0.5566
  75   0.0000       0.021041         0.5726
  76   0.0000       0.030290         0.8242

E(0)                                       ...  -3028.432474334
E(0)                                       ...  -3028.432474334
E(CORR)(strong-pairs)                      ...     -2.868325551
E(CORR)(weak-pairs)                        ...     -0.035991080
E(CORR)(corrected)                         ...     -2.904316632
E(TOT)                                     ...  -3031.336790965
E(CCSD(T))                                 ...  -3031.454241257
FINAL SINGLE POINT ENERGY     -3031.454241257334

DIPOLE MOMENT
-------------
                                X             Y             Z
Electronic contribution:     39.58710       4.66833       2.26337
Nuclear contribution   :    -44.55670      -4.05093      -2.67067
                        -----------------------------------------
Total Dipole Moment    :     -4.96960       0.61740      -0.40730
                        -----------------------------------------
Magnitude (a.u.)       :      5.02434
Magnitude (Debye)      :     12.77085

Rotational constants in cm-1:     0.018959     0.011973     0.010803
Rotational constants in MHz :   568.368529   358.939972   323.870623

                             ****ORCA TERMINATED NORMALLY****
TOTAL RUN TIME: 1 days 1 hours 26 minutes 13 seconds 893 msec
