                         Program Version 4.1.2  - RELEASE  -
|  1> ! aug-cc-pVTZ aug-cc-pVTZ/C DLPNO-CCSD(T1) TightSCF NormalPNO UNO MiniPrint AutoAux
|  2> %pal nproc 10 end
|  3> %maxcore 20000
|  4> %mdci
|  5>      density none
|  6> end
|  7>
|  8> * xyz 0 6
|  9>  O     -0.32055600     -0.07791200     -0.41097000
| 10>  C     -1.28651700     -1.03956800     -0.23762700
| 11>  C     -2.46388400     -0.45102500      0.67200200
| 12>  C     -2.97911600      0.71583300     -0.03412600
| 13>  C     -4.19232700      0.62277800     -0.87934800
| 14> Fe      1.49927700      0.17134000     -0.08199400
| 15> Cl      1.77390600      2.25452600     -0.76149900
| 16>  C     -2.17671900      1.90941800     -0.05202300
| 17> Cl      2.56298500     -1.37730800     -1.22881700
| 18> Cl      1.81548900     -0.02142000      2.10478000
| 19>  H     -3.22825700     -1.23447400      0.69283600
| 20>  H     -2.56386300      2.74094100     -0.63970600
| 21>  H     -1.79594400      2.22353000      0.92375500
| 22>  H     -1.22318000      1.46262500     -0.50785200
| 23>  H     -5.01037800      1.09488600     -0.30951000
| 24>  H     -4.09077100      1.20196100     -1.80352700
| 25>  H     -4.48679300     -0.40542600     -1.09555000
| 26>  C     -1.96006900     -0.14362300      2.09747300
| 27>  H     -2.66846100      0.49968600      2.62846700
| 28>  H     -1.86690700     -1.07173400      2.66346200
| 29>  H     -0.98014200      0.33686500      2.08184500
| 30>  C     -0.72938900     -2.26988000      0.50852000
| 31>  H     -1.52087800     -2.99295500      0.73097500
| 32>  H      0.00976400     -2.74337300     -0.14404600
| 33>  H     -0.22393700     -1.98400900      1.43158100
| 34>  C     -1.81149800     -1.47126800     -1.61888600
| 35>  H     -0.99124600     -1.95384200     -2.15647100
| 36>  H     -2.64323300     -2.18093900     -1.54281000
| 37>  H     -2.12589600     -0.60982200     -2.21563700
| 38> *
| 39>
| 40>
| 41>                          ****END OF INPUT****

CARTESIAN COORDINATES (ANGSTROEM)
---------------------------------
  O     -0.320556   -0.077912   -0.410970
  C     -1.286517   -1.039568   -0.237627
  C     -2.463884   -0.451025    0.672002
  C     -2.979116    0.715833   -0.034126
  C     -4.192327    0.622778   -0.879348
  Fe     1.499277    0.171340   -0.081994
  Cl     1.773906    2.254526   -0.761499
  C     -2.176719    1.909418   -0.052023
  Cl     2.562985   -1.377308   -1.228817
  Cl     1.815489   -0.021420    2.104780
  H     -3.228257   -1.234474    0.692836
  H     -2.563863    2.740941   -0.639706
  H     -1.795944    2.223530    0.923755
  H     -1.223180    1.462625   -0.507852
  H     -5.010378    1.094886   -0.309510
  H     -4.090771    1.201961   -1.803527
  H     -4.486793   -0.405426   -1.095550
  C     -1.960069   -0.143623    2.097473
  H     -2.668461    0.499686    2.628467
  H     -1.866907   -1.071734    2.663462
  H     -0.980142    0.336865    2.081845
  C     -0.729389   -2.269880    0.508520
  H     -1.520878   -2.992955    0.730975
  H      0.009764   -2.743373   -0.144046
  H     -0.223937   -1.984009    1.431581
  C     -1.811498   -1.471268   -1.618886
  H     -0.991246   -1.953842   -2.156471
  H     -2.643233   -2.180939   -1.542810
  H     -2.125896   -0.609822   -2.215637

ORBITAL ENERGIES
----------------
                 SPIN UP ORBITALS
  NO   OCC          E(Eh)            E(eV)
   0   1.0000    -261.536858     -7116.7797
   1   1.0000    -104.765713     -2850.8200
   2   1.0000    -104.764650     -2850.7911
   3   1.0000    -104.762495     -2850.7324
   4   1.0000     -32.204789      -876.3369
   5   1.0000     -27.680638      -753.2285
   6   1.0000     -27.680524      -753.2253
   7   1.0000     -27.680269      -753.2184
   8   1.0000     -20.534006      -558.7587
   9   1.0000     -11.408268      -310.4348
  10   1.0000     -11.334829      -308.4364
  11   1.0000     -11.312849      -307.8383
  12   1.0000     -11.293942      -307.3238
  13   1.0000     -11.280858      -306.9677
  14   1.0000     -11.256810      -306.3134
  15   1.0000     -11.243098      -305.9403
  16   1.0000     -11.230585      -305.5998
  17   1.0000     -10.492320      -285.5105
  18   1.0000     -10.491221      -285.4806
  19   1.0000     -10.489100      -285.4229
  20   1.0000      -7.959196      -216.5807
  21   1.0000      -7.958369      -216.5582
  22   1.0000      -7.958311      -216.5566
  23   1.0000      -7.958057      -216.5497
  24   1.0000      -7.957320      -216.5297
  25   1.0000      -7.957220      -216.5270
  26   1.0000      -7.955932      -216.4919
  27   1.0000      -7.955202      -216.4720
  28   1.0000      -7.955121      -216.4698
  29   1.0000      -4.560279      -124.0915
  30   1.0000      -3.172758       -86.3351
  31   1.0000      -3.172455       -86.3269
  32   1.0000      -3.171924       -86.3124
  33   1.0000      -1.360842       -37.0304
  34   1.0000      -1.208995       -32.8984
  35   1.0000      -1.095802       -29.8183
  36   1.0000      -1.048218       -28.5235
  37   1.0000      -1.036459       -28.2035
  38   1.0000      -1.031368       -28.0649
  39   1.0000      -1.029258       -28.0075
  40   1.0000      -1.024111       -27.8675
  41   1.0000      -0.965007       -26.2592
  42   1.0000      -0.932293       -25.3690
  43   1.0000      -0.901762       -24.5382
  44   1.0000      -0.889936       -24.2164
  45   1.0000      -0.889808       -24.2129
  46   1.0000      -0.881546       -23.9881
  47   1.0000      -0.881231       -23.9795
  48   1.0000      -0.812499       -22.1092
  49   1.0000      -0.769255       -20.9325
  50   1.0000      -0.720280       -19.5998
  51   1.0000      -0.699877       -19.0446
  52   1.0000      -0.680324       -18.5125
  53   1.0000      -0.651192       -17.7198
  54   1.0000      -0.645653       -17.5691
  55   1.0000      -0.637271       -17.3410
  56   1.0000      -0.615334       -16.7441
  57   1.0000      -0.598215       -16.2783
  58   1.0000      -0.592868       -16.1328
  59   1.0000      -0.580816       -15.8048
  60   1.0000      -0.573368       -15.6021
  61   1.0000      -0.561402       -15.2765
  62   1.0000      -0.551035       -14.9944
  63   1.0000      -0.537992       -14.6395
  64   1.0000      -0.527267       -14.3477
  65   1.0000      -0.513282       -13.9671
  66   1.0000      -0.497101       -13.5268
  67   1.0000      -0.464129       -12.6296
  68   1.0000      -0.457744       -12.4558
  69   1.0000      -0.436729       -11.8840
  70   1.0000      -0.432605       -11.7718
  71   1.0000      -0.416365       -11.3299
  72   1.0000      -0.412290       -11.2190
  73   1.0000      -0.408859       -11.1256
  74   1.0000      -0.404519       -11.0075
  75   1.0000      -0.403302       -10.9744
  76   1.0000      -0.402286       -10.9468
  77   0.0000      -0.005822        -0.1584
  78   0.0000      -0.000494        -0.0134
  79   0.0000       0.016400         0.4463
  80   0.0000       0.016782         0.4567
  81   0.0000       0.026422         0.7190

                 SPIN DOWN ORBITALS
  NO   OCC          E(Eh)            E(eV)
   0   1.0000    -261.533312     -7116.6832
   1   1.0000    -104.764361     -2850.7832
   2   1.0000    -104.763310     -2850.7546
   3   1.0000    -104.761086     -2850.6941
   4   1.0000     -32.042723      -871.9268
   5   1.0000     -27.520817      -748.8795
   6   1.0000     -27.520634      -748.8745
   7   1.0000     -27.520132      -748.8609
   8   1.0000     -20.528166      -558.5998
   9   1.0000     -11.408258      -310.4345
  10   1.0000     -11.334645      -308.4314
  11   1.0000     -11.312852      -307.8384
  12   1.0000     -11.293841      -307.3210
  13   1.0000     -11.280850      -306.9675
  14   1.0000     -11.256832      -306.3140
  15   1.0000     -11.243010      -305.9379
  16   1.0000     -11.230551      -305.5988
  17   1.0000     -10.490864      -285.4709
  18   1.0000     -10.489782      -285.4415
  19   1.0000     -10.487589      -285.3818
  20   1.0000      -7.956756      -216.5143
  21   1.0000      -7.956221      -216.4998
  22   1.0000      -7.956148      -216.4978
  23   1.0000      -7.955736      -216.4866
  24   1.0000      -7.955131      -216.4701
  25   1.0000      -7.955025      -216.4672
  26   1.0000      -7.953548      -216.4271
  27   1.0000      -7.952864      -216.4084
  28   1.0000      -7.952789      -216.4064
  29   1.0000      -4.118042      -112.0576
  30   1.0000      -2.639973       -71.8373
  31   1.0000      -2.639858       -71.8342
  32   1.0000      -2.638924       -71.8088
  33   1.0000      -1.346122       -36.6298
  34   1.0000      -1.207744       -32.8644
  35   1.0000      -1.093239       -29.7485
  36   1.0000      -1.047665       -28.5084
  37   1.0000      -1.023779       -27.8584
  38   1.0000      -1.021286       -27.7906
  39   1.0000      -1.011274       -27.5182
  40   1.0000      -1.009280       -27.4639
  41   1.0000      -0.964391       -26.2424
  42   1.0000      -0.931969       -25.3602
  43   1.0000      -0.816944       -22.2302
  44   1.0000      -0.776013       -21.1164
  45   1.0000      -0.721063       -19.6211
  46   1.0000      -0.699566       -19.0362
  47   1.0000      -0.680533       -18.5183
  48   1.0000      -0.650638       -17.7047
  49   1.0000      -0.646813       -17.6007
  50   1.0000      -0.636973       -17.3329
  51   1.0000      -0.615380       -16.7454
  52   1.0000      -0.598106       -16.2753
  53   1.0000      -0.592846       -16.1322
  54   1.0000      -0.579274       -15.7629
  55   1.0000      -0.572027       -15.5656
  56   1.0000      -0.560847       -15.2614
  57   1.0000      -0.551018       -14.9940
  58   1.0000      -0.537957       -14.6385
  59   1.0000      -0.524534       -14.2733
  60   1.0000      -0.510234       -13.8842
  61   1.0000      -0.492276       -13.3955
  62   1.0000      -0.459989       -12.5169
  63   1.0000      -0.458308       -12.4712
  64   1.0000      -0.443913       -12.0795
  65   1.0000      -0.439580       -11.9616
  66   1.0000      -0.426966       -11.6183
  67   1.0000      -0.423683       -11.5290
  68   1.0000      -0.422772       -11.5042
  69   1.0000      -0.402014       -10.9394
  70   1.0000      -0.395919       -10.7735
  71   1.0000      -0.389337       -10.5944
  72   0.0000      -0.005925        -0.1612
  73   0.0000      -0.000502        -0.0137
  74   0.0000       0.016389         0.4460
  75   0.0000       0.016767         0.4563
  76   0.0000       0.026440         0.7195

E(0)                                       ...  -3028.423043585
E(0)                                       ...  -3028.423043585
E(CORR)(strong-pairs)                      ...     -2.873985482
E(CORR)(weak-pairs)                        ...     -0.035465554
E(CORR)(corrected)                         ...     -2.909451035
E(TOT)                                     ...  -3031.332494620
E(CCSD(T))                                 ...  -3031.451050316
FINAL SINGLE POINT ENERGY     -3031.451050316155

DIPOLE MOMENT
-------------
                                X             Y             Z
Electronic contribution:     41.97891       7.24462      -0.86199
Nuclear contribution   :    -48.13155      -7.22379       0.84914
                        -----------------------------------------
Total Dipole Moment    :     -6.15263       0.02083      -0.01285
                        -----------------------------------------
Magnitude (a.u.)       :      6.15268
Magnitude (Debye)      :     15.63888

Rotational constants in cm-1:     0.020210     0.010360     0.009871
Rotational constants in MHz :   605.889193   310.584405   295.921898

                             ****ORCA TERMINATED NORMALLY****
TOTAL RUN TIME: 0 days 19 hours 48 minutes 27 seconds 954 msec
