                         Program Version 4.1.2  - RELEASE  -
|  1> ! aug-cc-pVTZ aug-cc-pVTZ/C DLPNO-CCSD(T1) TightSCF NormalPNO UNO MiniPrint AutoAux
|  2> %pal nproc 10 end
|  3> %maxcore 20000
|  4> %mdci
|  5>      density none
|  6> end
|  7>
|  8> * xyz 0 6
|  9>  O     -0.35177300     -0.07526600     -0.51491400
| 10>  C     -1.23562200     -1.02714200     -0.47201600
| 11>  C     -3.12727700      0.03133600     -0.09617000
| 12>  C     -2.21813700      1.05236400     -0.22312500
| 13>  C     -2.00935000      1.74087100     -1.53518400
| 14> Fe      1.45253700      0.05495900      0.05692700
| 15> Cl      2.06570100      1.98412000     -0.79128300
| 16>  C     -1.59418200      1.72008600      0.96381000
| 17> Cl      2.37148400     -1.75987100     -0.78448300
| 18> Cl      1.43420100      0.03080500      2.26275800
| 19>  H     -3.65667000     -0.26366700     -0.99939300
| 20>  H     -2.32174800      2.44607500      1.35469000
| 21>  H     -1.35193900      1.02975900      1.77292700
| 22>  H     -0.68889100      2.26341400      0.68723900
| 23>  H     -2.51529900      2.71502100     -1.47055600
| 24>  H     -0.95020000      1.93233500     -1.72229100
| 25>  H     -2.44869200      1.19735100     -2.37470300
| 26>  C     -3.76373500     -0.41569000      1.19308000
| 27>  H     -4.68860700      0.15275300      1.35973100
| 28>  H     -4.04366200     -1.47321800      1.16006400
| 29>  H     -3.12436500     -0.25879400      2.06435300
| 30>  C     -1.21060600     -1.94395300      0.71799100
| 31>  H     -2.08092600     -2.59893200      0.76732600
| 32>  H     -0.31573500     -2.56935000      0.58130900
| 33>  H     -1.07656400     -1.39823500      1.65237800
| 34>  C     -1.60086800     -1.64300600     -1.79642000
| 35>  H     -0.72812800     -2.24637300     -2.08560500
| 36>  H     -2.47452600     -2.29466200     -1.73071000
| 37>  H     -1.74071100     -0.88539400     -2.56819000
| 38> *
| 39>
| 40>
| 41>                          ****END OF INPUT****

CARTESIAN COORDINATES (ANGSTROEM)
---------------------------------
  O     -0.351773   -0.075266   -0.514914
  C     -1.235622   -1.027142   -0.472016
  C     -3.127277    0.031336   -0.096170
  C     -2.218137    1.052364   -0.223125
  C     -2.009350    1.740871   -1.535184
  Fe     1.452537    0.054959    0.056927
  Cl     2.065701    1.984120   -0.791283
  C     -1.594182    1.720086    0.963810
  Cl     2.371484   -1.759871   -0.784483
  Cl     1.434201    0.030805    2.262758
  H     -3.656670   -0.263667   -0.999393
  H     -2.321748    2.446075    1.354690
  H     -1.351939    1.029759    1.772927
  H     -0.688891    2.263414    0.687239
  H     -2.515299    2.715021   -1.470556
  H     -0.950200    1.932335   -1.722291
  H     -2.448692    1.197351   -2.374703
  C     -3.763735   -0.415690    1.193080
  H     -4.688607    0.152753    1.359731
  H     -4.043662   -1.473218    1.160064
  H     -3.124365   -0.258794    2.064353
  C     -1.210606   -1.943953    0.717991
  H     -2.080926   -2.598932    0.767326
  H     -0.315735   -2.569350    0.581309
  H     -1.076564   -1.398235    1.652378
  C     -1.600868   -1.643006   -1.796420
  H     -0.728128   -2.246373   -2.085605
  H     -2.474526   -2.294662   -1.730710
  H     -1.740711   -0.885394   -2.568190

ORBITAL ENERGIES
----------------
                 SPIN UP ORBITALS
  NO   OCC          E(Eh)            E(eV)
   0   1.0000    -261.561305     -7117.4450
   1   1.0000    -104.782780     -2851.2844
   2   1.0000    -104.782754     -2851.2837
   3   1.0000    -104.782015     -2851.2636
   4   1.0000     -32.229145      -876.9996
   5   1.0000     -27.705327      -753.9003
   6   1.0000     -27.704645      -753.8817
   7   1.0000     -27.704523      -753.8784
   8   1.0000     -20.573819      -559.8421
   9   1.0000     -11.412589      -310.5523
  10   1.0000     -11.323767      -308.1354
  11   1.0000     -11.267062      -306.5924
  12   1.0000     -11.263227      -306.4880
  13   1.0000     -11.262943      -306.4803
  14   1.0000     -11.254983      -306.2636
  15   1.0000     -11.253618      -306.2265
  16   1.0000     -11.250776      -306.1492
  17   1.0000     -10.509377      -285.9747
  18   1.0000     -10.509352      -285.9740
  19   1.0000     -10.508558      -285.9524
  20   1.0000      -7.976248      -217.0448
  21   1.0000      -7.976208      -217.0437
  22   1.0000      -7.975449      -217.0230
  23   1.0000      -7.975443      -217.0228
  24   1.0000      -7.975394      -217.0215
  25   1.0000      -7.975364      -217.0207
  26   1.0000      -7.975352      -217.0204
  27   1.0000      -7.974675      -217.0019
  28   1.0000      -7.974595      -216.9998
  29   1.0000      -4.584471      -124.7498
  30   1.0000      -3.197413       -87.0060
  31   1.0000      -3.196268       -86.9749
  32   1.0000      -3.195857       -86.9637
  33   1.0000      -1.429345       -38.8945
  34   1.0000      -1.155052       -31.4306
  35   1.0000      -1.093840       -29.7649
  36   1.0000      -1.055779       -28.7292
  37   1.0000      -1.050241       -28.5785
  38   1.0000      -1.048989       -28.5445
  39   1.0000      -1.033399       -28.1202
  40   1.0000      -1.003197       -27.2984
  41   1.0000      -0.979554       -26.6550
  42   1.0000      -0.932515       -25.3750
  43   1.0000      -0.915867       -24.9220
  44   1.0000      -0.914007       -24.8714
  45   1.0000      -0.913920       -24.8690
  46   1.0000      -0.904314       -24.6076
  47   1.0000      -0.903758       -24.5925
  48   1.0000      -0.796173       -21.6650
  49   1.0000      -0.751087       -20.4381
  50   1.0000      -0.700106       -19.0509
  51   1.0000      -0.693587       -18.8735
  52   1.0000      -0.685397       -18.6506
  53   1.0000      -0.666918       -18.1478
  54   1.0000      -0.637464       -17.3463
  55   1.0000      -0.619878       -16.8677
  56   1.0000      -0.601947       -16.3798
  57   1.0000      -0.597598       -16.2615
  58   1.0000      -0.582284       -15.8448
  59   1.0000      -0.575706       -15.6658
  60   1.0000      -0.572818       -15.5872
  61   1.0000      -0.568374       -15.4662
  62   1.0000      -0.549789       -14.9605
  63   1.0000      -0.546889       -14.8816
  64   1.0000      -0.544471       -14.8158
  65   1.0000      -0.518975       -14.1220
  66   1.0000      -0.516125       -14.0445
  67   1.0000      -0.489196       -13.3117
  68   1.0000      -0.470354       -12.7990
  69   1.0000      -0.460860       -12.5406
  70   1.0000      -0.438481       -11.9317
  71   1.0000      -0.432414       -11.7666
  72   1.0000      -0.430520       -11.7150
  73   1.0000      -0.423129       -11.5139
  74   1.0000      -0.420922       -11.4539
  75   1.0000      -0.420614       -11.4455
  76   1.0000      -0.367608       -10.0031
  77   0.0000       0.011552         0.3144
  78   0.0000       0.022099         0.6013
  79   0.0000       0.023265         0.6331
  80   0.0000       0.030375         0.8265
  81   0.0000       0.039000         1.0612

                 SPIN DOWN ORBITALS
  NO   OCC          E(Eh)            E(eV)
   0   1.0000    -261.557751     -7117.3482
   1   1.0000    -104.781324     -2851.2448
   2   1.0000    -104.781316     -2851.2446
   3   1.0000    -104.780588     -2851.2248
   4   1.0000     -32.067137      -872.5912
   5   1.0000     -27.545092      -749.5401
   6   1.0000     -27.545026      -749.5383
   7   1.0000     -27.544718      -749.5299
   8   1.0000     -20.569283      -559.7186
   9   1.0000     -11.412478      -310.5493
  10   1.0000     -11.323873      -308.1383
  11   1.0000     -11.266973      -306.5899
  12   1.0000     -11.263199      -306.4872
  13   1.0000     -11.262493      -306.4680
  14   1.0000     -11.255033      -306.2650
  15   1.0000     -11.253593      -306.2258
  16   1.0000     -11.250781      -306.1493
  17   1.0000     -10.507836      -285.9328
  18   1.0000     -10.507794      -285.9316
  19   1.0000     -10.507037      -285.9110
  20   1.0000      -7.973736      -216.9764
  21   1.0000      -7.973700      -216.9754
  22   1.0000      -7.973111      -216.9594
  23   1.0000      -7.973058      -216.9579
  24   1.0000      -7.973036      -216.9573
  25   1.0000      -7.973024      -216.9570
  26   1.0000      -7.972965      -216.9554
  27   1.0000      -7.972261      -216.9362
  28   1.0000      -7.972170      -216.9338
  29   1.0000      -4.142272      -112.7169
  30   1.0000      -2.663960       -72.4900
  31   1.0000      -2.663835       -72.4866
  32   1.0000      -2.663486       -72.4771
  33   1.0000      -1.417819       -38.5808
  34   1.0000      -1.154092       -31.4044
  35   1.0000      -1.091235       -29.6940
  36   1.0000      -1.040873       -28.3236
  37   1.0000      -1.032813       -28.1043
  38   1.0000      -1.028915       -27.9982
  39   1.0000      -1.028313       -27.9818
  40   1.0000      -1.002411       -27.2770
  41   1.0000      -0.979477       -26.6529
  42   1.0000      -0.918635       -24.9973
  43   1.0000      -0.809896       -22.0384
  44   1.0000      -0.751175       -20.4405
  45   1.0000      -0.700831       -19.0706
  46   1.0000      -0.695897       -18.9363
  47   1.0000      -0.683813       -18.6075
  48   1.0000      -0.666705       -18.1420
  49   1.0000      -0.637399       -17.3445
  50   1.0000      -0.619735       -16.8638
  51   1.0000      -0.601199       -16.3594
  52   1.0000      -0.597551       -16.2602
  53   1.0000      -0.582021       -15.8376
  54   1.0000      -0.575341       -15.6558
  55   1.0000      -0.572764       -15.5857
  56   1.0000      -0.568027       -15.4568
  57   1.0000      -0.549551       -14.9540
  58   1.0000      -0.545615       -14.8469
  59   1.0000      -0.540959       -14.7202
  60   1.0000      -0.517428       -14.0799
  61   1.0000      -0.511314       -13.9136
  62   1.0000      -0.485999       -13.2247
  63   1.0000      -0.474523       -12.9124
  64   1.0000      -0.471731       -12.8365
  65   1.0000      -0.444683       -12.1004
  66   1.0000      -0.442224       -12.0335
  67   1.0000      -0.439853       -11.9690
  68   1.0000      -0.426708       -11.6113
  69   1.0000      -0.419948       -11.4274
  70   1.0000      -0.406603       -11.0642
  71   1.0000      -0.366253        -9.9662
  72   0.0000       0.011551         0.3143
  73   0.0000       0.022054         0.6001
  74   0.0000       0.023239         0.6324
  75   0.0000       0.030403         0.8273
  76   0.0000       0.038971         1.0604

E(0)                                       ...  -3028.419809662
E(0)                                       ...  -3028.419809662
E(CORR)(strong-pairs)                      ...     -2.873699174
E(CORR)(weak-pairs)                        ...     -0.035909477
E(CORR)(corrected)                         ...     -2.909608651
E(TOT)                                     ...  -3031.329418313
E(CCSD(T))                                 ...  -3031.449304609
FINAL SINGLE POINT ENERGY     -3031.449304608951

DIPOLE MOMENT
-------------
                                X             Y             Z
Electronic contribution:     42.35169       2.22863       2.15465
Nuclear contribution   :    -46.41280      -2.72513      -2.65954
                        -----------------------------------------
Total Dipole Moment    :     -4.06111      -0.49650      -0.50489
                        -----------------------------------------
Magnitude (a.u.)       :      4.12239
Magnitude (Debye)      :     10.47827

Rotational constants in cm-1:     0.019631     0.011210     0.010485
Rotational constants in MHz :   588.512057   336.053172   314.344381

                             ****ORCA TERMINATED NORMALLY****
TOTAL RUN TIME: 0 days 21 hours 23 minutes 25 seconds 907 msec
