                         Program Version 4.1.2  - RELEASE  -
|  1> ! aug-cc-pVTZ aug-cc-pVTZ/C DLPNO-CCSD(T1) TightSCF NormalPNO UNO MiniPrint AutoAux
|  2> %pal nproc 10 end
|  3> %maxcore 20000
|  4> %mdci
|  5>      density none
|  6> end
|  7>
|  8> * xyz 0 6
|  9>  O      0.18810800      0.38440100     -0.87770700
| 10>  C      0.97918800      1.33709500     -0.67802800
| 11>  C      3.05803900      0.13374600      0.55499300
| 12>  C      2.67033700     -0.93682700     -0.16852500
| 13>  C      3.16843600     -1.16116300     -1.57029200
| 14> Fe     -1.48494100     -0.16545900      0.00990800
| 15> Cl     -2.05825400     -1.99951300     -1.00739100
| 16>  C      1.74543800     -2.00506800      0.33632700
| 17> Cl     -2.73930600      1.58369700     -0.38284800
| 18> Cl     -1.07440800     -0.41994400      2.15117300
| 19>  H      3.77802200      0.81103200      0.09457800
| 20>  H      2.26834200     -2.97051600      0.36052100
| 21>  H      1.34835300     -1.80803200      1.33167100
| 22>  H      0.89970900     -2.13387300     -0.35166700
| 23>  H      3.70059800     -2.11953000     -1.62989700
| 24>  H      2.33016700     -1.23156000     -2.27652300
| 25>  H      3.85284200     -0.37588400     -1.90362600
| 26>  C      2.81153000      0.35775200      2.02395600
| 27>  H      3.60759900     -0.11549700      2.61484500
| 28>  H      2.82800900      1.42258200      2.27574700
| 29>  H      1.85955300     -0.05482200      2.36675600
| 30>  C      0.80728100      2.24426500      0.49960600
| 31>  H      1.69485500      2.84963400      0.68614600
| 32>  H     -0.02701100      2.91485100      0.24414600
| 33>  H      0.51747400      1.69550000      1.39592700
| 34>  C      1.81147700      1.81091100     -1.83092300
| 35>  H      1.22660300      2.60379400     -2.32038700
| 36>  H      2.75708500      2.24752200     -1.50709800
| 37>  H      1.97449700      1.01517900     -2.55564400
| 38> *
| 39>
| 40>
| 41>                          ****END OF INPUT****

CARTESIAN COORDINATES (ANGSTROEM)
---------------------------------
  O      0.188108    0.384401   -0.877707
  C      0.979188    1.337095   -0.678028
  C      3.058039    0.133746    0.554993
  C      2.670337   -0.936827   -0.168525
  C      3.168436   -1.161163   -1.570292
  Fe    -1.484941   -0.165459    0.009908
  Cl    -2.058254   -1.999513   -1.007391
  C      1.745438   -2.005068    0.336327
  Cl    -2.739306    1.583697   -0.382848
  Cl    -1.074408   -0.419944    2.151173
  H      3.778022    0.811032    0.094578
  H      2.268342   -2.970516    0.360521
  H      1.348353   -1.808032    1.331671
  H      0.899709   -2.133873   -0.351667
  H      3.700598   -2.119530   -1.629897
  H      2.330167   -1.231560   -2.276523
  H      3.852842   -0.375884   -1.903626
  C      2.811530    0.357752    2.023956
  H      3.607599   -0.115497    2.614845
  H      2.828009    1.422582    2.275747
  H      1.859553   -0.054822    2.366756
  C      0.807281    2.244265    0.499606
  H      1.694855    2.849634    0.686146
  H     -0.027011    2.914851    0.244146
  H      0.517474    1.695500    1.395927
  C      1.811477    1.810911   -1.830923
  H      1.226603    2.603794   -2.320387
  H      2.757085    2.247522   -1.507098
  H      1.974497    1.015179   -2.555644

ORBITAL ENERGIES
----------------
                 SPIN UP ORBITALS
  NO   OCC          E(Eh)            E(eV)
   0   1.0000    -261.576395     -7117.8556
   1   1.0000    -104.794447     -2851.6019
   2   1.0000    -104.791146     -2851.5121
   3   1.0000    -104.789072     -2851.4556
   4   1.0000     -32.244095      -877.4064
   5   1.0000     -27.720590      -754.3156
   6   1.0000     -27.719430      -754.2840
   7   1.0000     -27.719229      -754.2786
   8   1.0000     -20.622263      -561.1603
   9   1.0000     -11.421864      -310.8047
  10   1.0000     -11.278154      -306.8942
  11   1.0000     -11.272729      -306.7465
  12   1.0000     -11.265515      -306.5502
  13   1.0000     -11.243203      -305.9431
  14   1.0000     -11.242508      -305.9242
  15   1.0000     -11.235810      -305.7419
  16   1.0000     -11.228677      -305.5478
  17   1.0000     -10.521172      -286.2956
  18   1.0000     -10.517840      -286.2050
  19   1.0000     -10.515716      -286.1472
  20   1.0000      -7.988000      -217.3645
  21   1.0000      -7.987253      -217.3442
  22   1.0000      -7.987200      -217.3428
  23   1.0000      -7.984718      -217.2752
  24   1.0000      -7.983937      -217.2540
  25   1.0000      -7.983884      -217.2525
  26   1.0000      -7.982503      -217.2150
  27   1.0000      -7.981847      -217.1971
  28   1.0000      -7.981799      -217.1958
  29   1.0000      -4.598938      -125.1435
  30   1.0000      -3.212092       -87.4055
  31   1.0000      -3.210327       -87.3574
  32   1.0000      -3.210171       -87.3532
  33   1.0000      -1.465817       -39.8869
  34   1.0000      -1.124910       -30.6104
  35   1.0000      -1.101368       -29.9698
  36   1.0000      -1.067596       -29.0508
  37   1.0000      -1.061747       -28.8916
  38   1.0000      -1.058750       -28.8101
  39   1.0000      -1.021607       -27.7993
  40   1.0000      -1.009288       -27.4641
  41   1.0000      -0.957523       -26.0555
  42   1.0000      -0.943281       -25.6680
  43   1.0000      -0.927835       -25.2477
  44   1.0000      -0.927700       -25.2440
  45   1.0000      -0.916984       -24.9524
  46   1.0000      -0.916326       -24.9345
  47   1.0000      -0.895123       -24.3575
  48   1.0000      -0.814896       -22.1744
  49   1.0000      -0.728343       -19.8192
  50   1.0000      -0.713304       -19.4100
  51   1.0000      -0.703213       -19.1354
  52   1.0000      -0.684360       -18.6224
  53   1.0000      -0.653965       -17.7953
  54   1.0000      -0.621345       -16.9077
  55   1.0000      -0.620101       -16.8738
  56   1.0000      -0.604713       -16.4551
  57   1.0000      -0.599684       -16.3182
  58   1.0000      -0.586069       -15.9477
  59   1.0000      -0.579145       -15.7593
  60   1.0000      -0.560946       -15.2641
  61   1.0000      -0.550813       -14.9884
  62   1.0000      -0.546567       -14.8728
  63   1.0000      -0.539600       -14.6833
  64   1.0000      -0.537196       -14.6179
  65   1.0000      -0.525097       -14.2886
  66   1.0000      -0.504351       -13.7241
  67   1.0000      -0.491896       -13.3852
  68   1.0000      -0.477365       -12.9898
  69   1.0000      -0.476963       -12.9788
  70   1.0000      -0.447362       -12.1733
  71   1.0000      -0.441106       -12.0031
  72   1.0000      -0.439225       -11.9519
  73   1.0000      -0.430648       -11.7185
  74   1.0000      -0.429678       -11.6921
  75   1.0000      -0.428345       -11.6558
  76   1.0000      -0.358790        -9.7632
  77   0.0000       0.012638         0.3439
  78   0.0000       0.023679         0.6443
  79   0.0000       0.024365         0.6630
  80   0.0000       0.030686         0.8350
  81   0.0000       0.039331         1.0703

                 SPIN DOWN ORBITALS
  NO   OCC          E(Eh)            E(eV)
   0   1.0000    -261.572812     -7117.7581
   1   1.0000    -104.792958     -2851.5614
   2   1.0000    -104.789587     -2851.4696
   3   1.0000    -104.787503     -2851.4129
   4   1.0000     -32.082108      -872.9985
   5   1.0000     -27.560039      -749.9468
   6   1.0000     -27.559943      -749.9442
   7   1.0000     -27.559848      -749.9416
   8   1.0000     -20.618793      -561.0659
   9   1.0000     -11.421792      -310.8028
  10   1.0000     -11.278047      -306.8913
  11   1.0000     -11.272720      -306.7463
  12   1.0000     -11.265543      -306.5510
  13   1.0000     -11.243153      -305.9417
  14   1.0000     -11.242504      -305.9241
  15   1.0000     -11.235813      -305.7420
  16   1.0000     -11.228687      -305.5481
  17   1.0000     -10.519581      -286.2523
  18   1.0000     -10.516175      -286.1597
  19   1.0000     -10.514050      -286.1018
  20   1.0000      -7.985504      -217.2966
  21   1.0000      -7.984757      -217.2763
  22   1.0000      -7.984720      -217.2753
  23   1.0000      -7.982056      -217.2028
  24   1.0000      -7.981365      -217.1840
  25   1.0000      -7.981274      -217.1815
  26   1.0000      -7.980042      -217.1480
  27   1.0000      -7.979140      -217.1234
  28   1.0000      -7.979057      -217.1212
  29   1.0000      -4.156871      -113.1142
  30   1.0000      -2.678414       -72.8833
  31   1.0000      -2.678392       -72.8828
  32   1.0000      -2.677940       -72.8704
  33   1.0000      -1.457343       -39.6563
  34   1.0000      -1.124607       -30.6021
  35   1.0000      -1.099064       -29.9070
  36   1.0000      -1.051894       -28.6235
  37   1.0000      -1.039312       -28.2811
  38   1.0000      -1.035961       -28.1899
  39   1.0000      -1.020791       -27.7771
  40   1.0000      -1.008900       -27.4536
  41   1.0000      -0.957418       -26.0527
  42   1.0000      -0.895231       -24.3605
  43   1.0000      -0.827754       -22.5243
  44   1.0000      -0.728414       -19.8212
  45   1.0000      -0.715165       -19.4606
  46   1.0000      -0.702395       -19.1131
  47   1.0000      -0.683757       -18.6060
  48   1.0000      -0.653908       -17.7937
  49   1.0000      -0.620877       -16.8949
  50   1.0000      -0.619958       -16.8699
  51   1.0000      -0.604499       -16.4493
  52   1.0000      -0.599589       -16.3156
  53   1.0000      -0.585780       -15.9399
  54   1.0000      -0.577689       -15.7197
  55   1.0000      -0.560159       -15.2427
  56   1.0000      -0.550508       -14.9801
  57   1.0000      -0.544974       -14.8295
  58   1.0000      -0.539443       -14.6790
  59   1.0000      -0.527030       -14.3412
  60   1.0000      -0.523639       -14.2489
  61   1.0000      -0.506246       -13.7757
  62   1.0000      -0.491748       -13.3811
  63   1.0000      -0.485819       -13.2198
  64   1.0000      -0.483201       -13.1486
  65   1.0000      -0.454603       -12.3704
  66   1.0000      -0.451334       -12.2814
  67   1.0000      -0.448357       -12.2004
  68   1.0000      -0.432020       -11.7559
  69   1.0000      -0.429659       -11.6916
  70   1.0000      -0.413802       -11.2601
  71   1.0000      -0.358289        -9.7495
  72   0.0000       0.012621         0.3434
  73   0.0000       0.023655         0.6437
  74   0.0000       0.024326         0.6620
  75   0.0000       0.030619         0.8332
  76   0.0000       0.039234         1.0676

E(0)                                       ...  -3028.467553872
E(0)                                       ...  -3028.467553872
E(CORR)(strong-pairs)                      ...     -2.866833940
E(CORR)(weak-pairs)                        ...     -0.035405075
E(CORR)(corrected)                         ...     -2.902239015
E(TOT)                                     ...  -3031.369792887
E(CCSD(T))                                 ...  -3031.487679532
FINAL SINGLE POINT ENERGY     -3031.487679531565

DIPOLE MOMENT
-------------
                                X             Y             Z
Electronic contribution:    -43.65307      -4.86697       1.59711
Nuclear contribution   :     46.92565       6.34501      -2.23046
                        -----------------------------------------
Total Dipole Moment    :      3.27259       1.47804      -0.63335
                        -----------------------------------------
Magnitude (a.u.)       :      3.64631
Magnitude (Debye)      :      9.26818

Rotational constants in cm-1:     0.018820     0.010685     0.010057
Rotational constants in MHz :   564.196452   320.314999   301.498556

                             ****ORCA TERMINATED NORMALLY****
TOTAL RUN TIME: 0 days 16 hours 43 minutes 15 seconds 639 msec
