                         Program Version 4.1.2  - RELEASE  -
|  1> ! aug-cc-pVTZ aug-cc-pVTZ/C DLPNO-CCSD(T1) TightSCF NormalPNO UNO MiniPrint AutoAux
|  2> %pal nproc 10 end
|  3> %maxcore 20000
|  4> %mdci
|  5>      density none
|  6> end
|  7>
|  8> * xyz 0 6
|  9>  O     -0.31476700     -0.13959300     -0.65701500
| 10>  C     -1.19130700     -1.06757000     -0.57324800
| 11>  C     -3.12621100     -0.02695500      0.10738800
| 12>  C     -2.34832100      1.04802000     -0.19421400
| 13>  C     -2.32999500      1.64776500     -1.56598900
| 14> Fe      1.45763400      0.07658500      0.04967300
| 15> Cl      2.08480700      2.00396100     -0.77305800
| 16>  C     -1.56145900      1.80023000      0.83416700
| 17> Cl      2.48091600     -1.70702300     -0.72203000
| 18> Cl      1.33512100      0.05760800      2.24968200
| 19>  H     -3.75705800     -0.41799200     -0.68814300
| 20>  H     -2.19810000      2.60489800      1.22934300
| 21>  H     -1.24272400      1.18730700      1.67774400
| 22>  H     -0.68030300      2.27243800      0.39192300
| 23>  H     -2.64180200      2.69779900     -1.49228900
| 24>  H     -1.31067400      1.64923000     -1.96751200
| 25>  H     -3.00524600      1.14324900     -2.26123800
| 26>  C     -3.50202400     -0.47064300      1.49656200
| 27>  H     -4.41380500      0.05496000      1.81074700
| 28>  H     -3.72521700     -1.54084300      1.53569100
| 29>  H     -2.73131100     -0.25452400      2.23978400
| 30>  C     -1.10240400     -2.03945700      0.56874000
| 31>  H     -1.98041600     -2.68061200      0.64703600
| 32>  H     -0.23190300     -2.67264500      0.34025200
| 33>  H     -0.89587400     -1.54102000      1.51598100
| 34>  C     -1.73706100     -1.58993200     -1.87638600
| 35>  H     -0.93974600     -2.22476800     -2.28899300
| 36>  H     -2.63174100     -2.20065600     -1.74472500
| 37>  H     -1.91607200     -0.78728300     -2.59119500
| 38> *
| 39>
| 40>
| 41>                          ****END OF INPUT****

CARTESIAN COORDINATES (ANGSTROEM)
---------------------------------
  O     -0.314767   -0.139593   -0.657015
  C     -1.191307   -1.067570   -0.573248
  C     -3.126211   -0.026955    0.107388
  C     -2.348321    1.048020   -0.194214
  C     -2.329995    1.647765   -1.565989
  Fe     1.457634    0.076585    0.049673
  Cl     2.084807    2.003961   -0.773058
  C     -1.561459    1.800230    0.834167
  Cl     2.480916   -1.707023   -0.722030
  Cl     1.335121    0.057608    2.249682
  H     -3.757058   -0.417992   -0.688143
  H     -2.198100    2.604898    1.229343
  H     -1.242724    1.187307    1.677744
  H     -0.680303    2.272438    0.391923
  H     -2.641802    2.697799   -1.492289
  H     -1.310674    1.649230   -1.967512
  H     -3.005246    1.143249   -2.261238
  C     -3.502024   -0.470643    1.496562
  H     -4.413805    0.054960    1.810747
  H     -3.725217   -1.540843    1.535691
  H     -2.731311   -0.254524    2.239784
  C     -1.102404   -2.039457    0.568740
  H     -1.980416   -2.680612    0.647036
  H     -0.231903   -2.672645    0.340252
  H     -0.895874   -1.541020    1.515981
  C     -1.737061   -1.589932   -1.876386
  H     -0.939746   -2.224768   -2.288993
  H     -2.631741   -2.200656   -1.744725
  H     -1.916072   -0.787283   -2.591195

ORBITAL ENERGIES
----------------
                 SPIN UP ORBITALS
  NO   OCC          E(Eh)            E(eV)
   0   1.0000    -261.566113     -7117.5758
   1   1.0000    -104.786362     -2851.3819
   2   1.0000    -104.784446     -2851.3297
   3   1.0000    -104.783608     -2851.3069
   4   1.0000     -32.233911      -877.1293
   5   1.0000     -27.710195      -754.0327
   6   1.0000     -27.709363      -754.0101
   7   1.0000     -27.709219      -754.0062
   8   1.0000     -20.588362      -560.2378
   9   1.0000     -11.416881      -310.6691
  10   1.0000     -11.301642      -307.5333
  11   1.0000     -11.271285      -306.7073
  12   1.0000     -11.265855      -306.5595
  13   1.0000     -11.258142      -306.3496
  14   1.0000     -11.250905      -306.1527
  15   1.0000     -11.250375      -306.1383
  16   1.0000     -11.243024      -305.9382
  17   1.0000     -10.513025      -286.0739
  18   1.0000     -10.511060      -286.0205
  19   1.0000     -10.510189      -285.9968
  20   1.0000      -7.979883      -217.1436
  21   1.0000      -7.979087      -217.1220
  22   1.0000      -7.979048      -217.1209
  23   1.0000      -7.977933      -217.0906
  24   1.0000      -7.977157      -217.0695
  25   1.0000      -7.977074      -217.0672
  26   1.0000      -7.976988      -217.0649
  27   1.0000      -7.976308      -217.0464
  28   1.0000      -7.976240      -217.0445
  29   1.0000      -4.589078      -124.8752
  30   1.0000      -3.202096       -87.1335
  31   1.0000      -3.200719       -87.0960
  32   1.0000      -3.200438       -87.0883
  33   1.0000      -1.441061       -39.2133
  34   1.0000      -1.147746       -31.2318
  35   1.0000      -1.094810       -29.7913
  36   1.0000      -1.059016       -28.8173
  37   1.0000      -1.053612       -28.6702
  38   1.0000      -1.051499       -28.6127
  39   1.0000      -1.030867       -28.0513
  40   1.0000      -1.005814       -27.3696
  41   1.0000      -0.972938       -26.4750
  42   1.0000      -0.935160       -25.4470
  43   1.0000      -0.918387       -24.9906
  44   1.0000      -0.918246       -24.9867
  45   1.0000      -0.912245       -24.8234
  46   1.0000      -0.908032       -24.7088
  47   1.0000      -0.907796       -24.7024
  48   1.0000      -0.801864       -21.8198
  49   1.0000      -0.744903       -20.2698
  50   1.0000      -0.700029       -19.0487
  51   1.0000      -0.695496       -18.9254
  52   1.0000      -0.687851       -18.7174
  53   1.0000      -0.666484       -18.1360
  54   1.0000      -0.634747       -17.2724
  55   1.0000      -0.619886       -16.8680
  56   1.0000      -0.603367       -16.4185
  57   1.0000      -0.599591       -16.3157
  58   1.0000      -0.582950       -15.8629
  59   1.0000      -0.577049       -15.7023
  60   1.0000      -0.566864       -15.4252
  61   1.0000      -0.563508       -15.3338
  62   1.0000      -0.550859       -14.9896
  63   1.0000      -0.547603       -14.9010
  64   1.0000      -0.539648       -14.6846
  65   1.0000      -0.523935       -14.2570
  66   1.0000      -0.509410       -13.8617
  67   1.0000      -0.492422       -13.3995
  68   1.0000      -0.472090       -12.8462
  69   1.0000      -0.466276       -12.6880
  70   1.0000      -0.440055       -11.9745
  71   1.0000      -0.434524       -11.8240
  72   1.0000      -0.433088       -11.7849
  73   1.0000      -0.424654       -11.5554
  74   1.0000      -0.422956       -11.5092
  75   1.0000      -0.422691       -11.5020
  76   1.0000      -0.368522       -10.0280
  77   0.0000       0.011962         0.3255
  78   0.0000       0.022624         0.6156
  79   0.0000       0.023199         0.6313
  80   0.0000       0.030315         0.8249
  81   0.0000       0.039183         1.0662

                 SPIN DOWN ORBITALS
  NO   OCC          E(Eh)            E(eV)
   0   1.0000    -261.562554     -7117.4789
   1   1.0000    -104.784910     -2851.3424
   2   1.0000    -104.782953     -2851.2891
   3   1.0000    -104.782132     -2851.2668
   4   1.0000     -32.071887      -872.7204
   5   1.0000     -27.549822      -749.6688
   6   1.0000     -27.549771      -749.6674
   7   1.0000     -27.549518      -749.6605
   8   1.0000     -20.584252      -560.1260
   9   1.0000     -11.416735      -310.6651
  10   1.0000     -11.301657      -307.5337
  11   1.0000     -11.271182      -306.7045
  12   1.0000     -11.265840      -306.5591
  13   1.0000     -11.257939      -306.3441
  14   1.0000     -11.250927      -306.1533
  15   1.0000     -11.250366      -306.1380
  16   1.0000     -11.243044      -305.9388
  17   1.0000     -10.511471      -286.0317
  18   1.0000     -10.509464      -285.9770
  19   1.0000     -10.508617      -285.9540
  20   1.0000      -7.977371      -217.0753
  21   1.0000      -7.976718      -217.0575
  22   1.0000      -7.976655      -217.0558
  23   1.0000      -7.975353      -217.0204
  24   1.0000      -7.974708      -217.0028
  25   1.0000      -7.974610      -217.0002
  26   1.0000      -7.974601      -216.9999
  27   1.0000      -7.973799      -216.9781
  28   1.0000      -7.973711      -216.9757
  29   1.0000      -4.146837      -112.8412
  30   1.0000      -2.668451       -72.6122
  31   1.0000      -2.668406       -72.6110
  32   1.0000      -2.667938       -72.5983
  33   1.0000      -1.430653       -38.9300
  34   1.0000      -1.147113       -31.2145
  35   1.0000      -1.092207       -29.7205
  36   1.0000      -1.043957       -28.4075
  37   1.0000      -1.031813       -28.0771
  38   1.0000      -1.030751       -28.0482
  39   1.0000      -1.029746       -28.0208
  40   1.0000      -1.004992       -27.3472
  41   1.0000      -0.972841       -26.4723
  42   1.0000      -0.912995       -24.8439
  43   1.0000      -0.815743       -22.1975
  44   1.0000      -0.744944       -20.2710
  45   1.0000      -0.702802       -19.1242
  46   1.0000      -0.695611       -18.9285
  47   1.0000      -0.686133       -18.6706
  48   1.0000      -0.666346       -18.1322
  49   1.0000      -0.634661       -17.2700
  50   1.0000      -0.619526       -16.8582
  51   1.0000      -0.602954       -16.4072
  52   1.0000      -0.599536       -16.3142
  53   1.0000      -0.582591       -15.8531
  54   1.0000      -0.576634       -15.6910
  55   1.0000      -0.566636       -15.4189
  56   1.0000      -0.563313       -15.3285
  57   1.0000      -0.549082       -14.9413
  58   1.0000      -0.546349       -14.8669
  59   1.0000      -0.538543       -14.6545
  60   1.0000      -0.514781       -14.0079
  61   1.0000      -0.509406       -13.8616
  62   1.0000      -0.491389       -13.3714
  63   1.0000      -0.477195       -12.9851
  64   1.0000      -0.476194       -12.9579
  65   1.0000      -0.447465       -12.1761
  66   1.0000      -0.444395       -12.0926
  67   1.0000      -0.442216       -12.0333
  68   1.0000      -0.427286       -11.6270
  69   1.0000      -0.422990       -11.5101
  70   1.0000      -0.408224       -11.1083
  71   1.0000      -0.367111        -9.9896
  72   0.0000       0.011954         0.3253
  73   0.0000       0.022598         0.6149
  74   0.0000       0.023174         0.6306
  75   0.0000       0.030315         0.8249
  76   0.0000       0.039136         1.0649

E(0)                                       ...  -3028.436377661
E(0)                                       ...  -3028.436377661
E(CORR)(strong-pairs)                      ...     -2.871919618
E(CORR)(weak-pairs)                        ...     -0.036429412
E(CORR)(corrected)                         ...     -2.908349030
E(TOT)                                     ...  -3031.344726691
E(CCSD(T))                                 ...  -3031.464106531
FINAL SINGLE POINT ENERGY     -3031.464106531427

DIPOLE MOMENT
-------------
                                X             Y             Z
Electronic contribution:     42.65732       2.64396       2.25136
Nuclear contribution   :    -46.56349      -3.38480      -2.81887
                        -----------------------------------------
Total Dipole Moment    :     -3.90617      -0.74084      -0.56751
                        -----------------------------------------
Magnitude (a.u.)       :      4.01610
Magnitude (Debye)      :     10.20813

Rotational constants in cm-1:     0.019395     0.011060     0.010404
Rotational constants in MHz :   581.451861   331.570463   311.909564

                             ****ORCA TERMINATED NORMALLY****
TOTAL RUN TIME: 0 days 19 hours 43 minutes 52 seconds 282 msec
