                         Program Version 4.1.2  - RELEASE  -
|  1> ! aug-cc-pVTZ aug-cc-pVTZ/C DLPNO-CCSD(T1) TightSCF NormalPNO UNO MiniPrint AutoAux
|  2> %pal nproc 10 end
|  3> %maxcore 20000
|  4> %mdci
|  5>      density none
|  6> end
|  7>
|  8> * xyz 0 6
|  9>  O     -0.32137500     -0.16681900     -0.71971400
| 10>  C     -1.24354900     -1.08772300     -0.57824500
| 11>  C     -2.79412300     -0.26911800      0.38384000
| 12>  C     -2.45659100      0.98039300     -0.10755400
| 13>  C     -2.90027800      1.45516500     -1.44847100
| 14> Fe      1.40780500      0.11164700     -0.01031600
| 15> Cl      1.96446900      2.09833200     -0.76634100
| 16>  C     -1.59598000      1.93045900      0.64410800
| 17> Cl      2.62338100     -1.56961100     -0.73091900
| 18> Cl      1.19193000      0.08677300      2.20320700
| 19>  H     -3.58742500     -0.78545800     -0.15380400
| 20>  H     -2.25345700      2.70934400      1.06121000
| 21>  H     -1.05098500      1.47433300      1.46862700
| 22>  H     -0.88738000      2.43126100     -0.02353900
| 23>  H     -3.29941900      2.47283200     -1.35536500
| 24>  H     -2.02341100      1.52987600     -2.10594700
| 25>  H     -3.65746300      0.81797200     -1.90791000
| 26>  C     -2.73422000     -0.57748800      1.86836300
| 27>  H     -3.51302800     -0.00827900      2.39007800
| 28>  H     -2.92465800     -1.63620000      2.05488700
| 29>  H     -1.77338900     -0.32142500      2.31966800
| 30>  C     -0.91515100     -2.24166900      0.35055100
| 31>  H     -1.75770000     -2.92335200      0.48410300
| 32>  H     -0.10060100     -2.78717300     -0.14466800
| 33>  H     -0.54030400     -1.90478800      1.31622200
| 34>  C     -1.85956500     -1.53927700     -1.89322300
| 35>  H     -1.07917500     -2.11717700     -2.40340800
| 36>  H     -2.72888200     -2.18538800     -1.74955400
| 37>  H     -2.11416800     -0.70249200     -2.54197100
| 38> *
| 39>
| 40>
| 41>                          ****END OF INPUT****

CARTESIAN COORDINATES (ANGSTROEM)
---------------------------------
  O     -0.321375   -0.166819   -0.719714
  C     -1.243549   -1.087723   -0.578245
  C     -2.794123   -0.269118    0.383840
  C     -2.456591    0.980393   -0.107554
  C     -2.900278    1.455165   -1.448471
  Fe     1.407805    0.111647   -0.010316
  Cl     1.964469    2.098332   -0.766341
  C     -1.595980    1.930459    0.644108
  Cl     2.623381   -1.569611   -0.730919
  Cl     1.191930    0.086773    2.203207
  H     -3.587425   -0.785458   -0.153804
  H     -2.253457    2.709344    1.061210
  H     -1.050985    1.474333    1.468627
  H     -0.887380    2.431261   -0.023539
  H     -3.299419    2.472832   -1.355365
  H     -2.023411    1.529876   -2.105947
  H     -3.657463    0.817972   -1.907910
  C     -2.734220   -0.577488    1.868363
  H     -3.513028   -0.008279    2.390078
  H     -2.924658   -1.636200    2.054887
  H     -1.773389   -0.321425    2.319668
  C     -0.915151   -2.241669    0.350551
  H     -1.757700   -2.923352    0.484103
  H     -0.100601   -2.787173   -0.144668
  H     -0.540304   -1.904788    1.316222
  C     -1.859565   -1.539277   -1.893223
  H     -1.079175   -2.117177   -2.403408
  H     -2.728882   -2.185388   -1.749554
  H     -2.114168   -0.702492   -2.541971

ORBITAL ENERGIES
----------------
                 SPIN UP ORBITALS
  NO   OCC          E(Eh)            E(eV)
   0   1.0000    -261.554346     -7117.2556
   1   1.0000    -104.780032     -2851.2096
   2   1.0000    -104.775911     -2851.0975
   3   1.0000    -104.775013     -2851.0730
   4   1.0000     -32.222231      -876.8115
   5   1.0000     -27.698239      -753.7074
   6   1.0000     -27.697869      -753.6973
   7   1.0000     -27.697644      -753.6912
   8   1.0000     -20.561081      -559.4955
   9   1.0000     -11.392153      -309.9962
  10   1.0000     -11.350319      -308.8579
  11   1.0000     -11.275506      -306.8221
  12   1.0000     -11.275017      -306.8088
  13   1.0000     -11.258162      -306.3502
  14   1.0000     -11.257949      -306.3444
  15   1.0000     -11.252243      -306.1891
  16   1.0000     -11.250444      -306.1402
  17   1.0000     -10.506650      -285.9005
  18   1.0000     -10.502498      -285.7875
  19   1.0000     -10.501632      -285.7639
  20   1.0000      -7.973539      -216.9710
  21   1.0000      -7.972672      -216.9474
  22   1.0000      -7.972637      -216.9465
  23   1.0000      -7.969310      -216.8560
  24   1.0000      -7.968604      -216.8367
  25   1.0000      -7.968527      -216.8347
  26   1.0000      -7.968478      -216.8333
  27   1.0000      -7.967733      -216.8130
  28   1.0000      -7.967660      -216.8110
  29   1.0000      -4.577514      -124.5605
  30   1.0000      -3.190144       -86.8082
  31   1.0000      -3.189479       -86.7901
  32   1.0000      -3.189072       -86.7791
  33   1.0000      -1.404586       -38.2207
  34   1.0000      -1.173080       -31.9211
  35   1.0000      -1.084424       -29.5087
  36   1.0000      -1.050752       -28.5924
  37   1.0000      -1.045154       -28.4401
  38   1.0000      -1.042410       -28.3654
  39   1.0000      -1.041495       -28.3405
  40   1.0000      -0.996813       -27.1247
  41   1.0000      -0.983893       -26.7731
  42   1.0000      -0.929238       -25.2858
  43   1.0000      -0.918468       -24.9928
  44   1.0000      -0.906869       -24.6772
  45   1.0000      -0.906761       -24.6742
  46   1.0000      -0.897952       -24.4345
  47   1.0000      -0.897223       -24.4147
  48   1.0000      -0.788305       -21.4509
  49   1.0000      -0.762315       -20.7436
  50   1.0000      -0.696101       -18.9419
  51   1.0000      -0.690358       -18.7856
  52   1.0000      -0.675103       -18.3705
  53   1.0000      -0.658358       -17.9148
  54   1.0000      -0.648942       -17.6586
  55   1.0000      -0.626008       -17.0345
  56   1.0000      -0.600828       -16.3494
  57   1.0000      -0.594710       -16.1829
  58   1.0000      -0.586099       -15.9486
  59   1.0000      -0.576224       -15.6798
  60   1.0000      -0.572427       -15.5765
  61   1.0000      -0.563060       -15.3217
  62   1.0000      -0.553073       -15.0499
  63   1.0000      -0.551091       -14.9959
  64   1.0000      -0.540475       -14.7071
  65   1.0000      -0.524211       -14.2645
  66   1.0000      -0.516233       -14.0474
  67   1.0000      -0.478004       -13.0071
  68   1.0000      -0.463670       -12.6171
  69   1.0000      -0.456196       -12.4137
  70   1.0000      -0.430067       -11.7027
  71   1.0000      -0.427846       -11.6423
  72   1.0000      -0.426062       -11.5937
  73   1.0000      -0.417021       -11.3477
  74   1.0000      -0.415780       -11.3139
  75   1.0000      -0.414753       -11.2860
  76   1.0000      -0.386934       -10.5290
  77   0.0000       0.008976         0.2443
  78   0.0000       0.019736         0.5370
  79   0.0000       0.021474         0.5843
  80   0.0000       0.026759         0.7282
  81   0.0000       0.032290         0.8787

                 SPIN DOWN ORBITALS
  NO   OCC          E(Eh)            E(eV)
   0   1.0000    -261.550798     -7117.1590
   1   1.0000    -104.778681     -2851.1729
   2   1.0000    -104.774508     -2851.0593
   3   1.0000    -104.773548     -2851.0332
   4   1.0000     -32.060155      -872.4012
   5   1.0000     -27.538184      -749.3521
   6   1.0000     -27.538063      -749.3488
   7   1.0000     -27.537648      -749.3375
   8   1.0000     -20.556095      -559.3598
   9   1.0000     -11.392130      -309.9956
  10   1.0000     -11.350214      -308.8550
  11   1.0000     -11.275519      -306.8225
  12   1.0000     -11.274869      -306.8048
  13   1.0000     -11.258201      -306.3512
  14   1.0000     -11.257835      -306.3413
  15   1.0000     -11.252259      -306.1895
  16   1.0000     -11.250417      -306.1394
  17   1.0000     -10.505196      -285.8609
  18   1.0000     -10.500999      -285.7467
  19   1.0000     -10.500065      -285.7213
  20   1.0000      -7.971055      -216.9034
  21   1.0000      -7.970560      -216.8900
  22   1.0000      -7.970489      -216.8880
  23   1.0000      -7.966978      -216.7925
  24   1.0000      -7.966256      -216.7729
  25   1.0000      -7.966168      -216.7704
  26   1.0000      -7.965994      -216.7657
  27   1.0000      -7.965304      -216.7469
  28   1.0000      -7.965222      -216.7447
  29   1.0000      -4.135185      -112.5241
  30   1.0000      -2.656953       -72.2994
  31   1.0000      -2.656908       -72.2981
  32   1.0000      -2.656032       -72.2743
  33   1.0000      -1.391862       -37.8745
  34   1.0000      -1.172188       -31.8969
  35   1.0000      -1.081680       -29.4340
  36   1.0000      -1.041235       -28.3334
  37   1.0000      -1.036272       -28.1984
  38   1.0000      -1.024552       -27.8795
  39   1.0000      -1.021529       -27.7972
  40   1.0000      -0.996591       -27.1186
  41   1.0000      -0.983143       -26.7527
  42   1.0000      -0.926466       -25.2104
  43   1.0000      -0.800670       -21.7873
  44   1.0000      -0.763325       -20.7711
  45   1.0000      -0.696859       -18.9625
  46   1.0000      -0.689645       -18.7662
  47   1.0000      -0.676738       -18.4150
  48   1.0000      -0.657966       -17.9042
  49   1.0000      -0.648417       -17.6443
  50   1.0000      -0.625571       -17.0226
  51   1.0000      -0.599856       -16.3229
  52   1.0000      -0.594944       -16.1893
  53   1.0000      -0.585875       -15.9425
  54   1.0000      -0.575801       -15.6683
  55   1.0000      -0.572258       -15.5719
  56   1.0000      -0.562707       -15.3120
  57   1.0000      -0.552885       -15.0448
  58   1.0000      -0.550367       -14.9763
  59   1.0000      -0.535375       -14.5683
  60   1.0000      -0.524181       -14.2637
  61   1.0000      -0.506854       -13.7922
  62   1.0000      -0.476540       -12.9673
  63   1.0000      -0.468637       -12.7523
  64   1.0000      -0.465425       -12.6649
  65   1.0000      -0.439890       -11.9700
  66   1.0000      -0.436919       -11.8892
  67   1.0000      -0.434946       -11.8355
  68   1.0000      -0.422382       -11.4936
  69   1.0000      -0.415027       -11.2935
  70   1.0000      -0.401666       -10.9299
  71   1.0000      -0.383029       -10.4228
  72   0.0000       0.008975         0.2442
  73   0.0000       0.019684         0.5356
  74   0.0000       0.021461         0.5840
  75   0.0000       0.026450         0.7197
  76   0.0000       0.032122         0.8741

E(0)                                       ...  -3028.427226479
E(0)                                       ...  -3028.427226479
E(CORR)(strong-pairs)                      ...     -2.873895093
E(CORR)(weak-pairs)                        ...     -0.036105440
E(CORR)(corrected)                         ...     -2.910000533
E(TOT)                                     ...  -3031.337227012
E(CCSD(T))                                 ...  -3031.457146106
FINAL SINGLE POINT ENERGY     -3031.457146105794

DIPOLE MOMENT
-------------
                                X             Y             Z
Electronic contribution:     40.64682       4.78285       1.70152
Nuclear contribution   :    -45.23932      -5.05513      -2.19032
                        -----------------------------------------
Total Dipole Moment    :     -4.59250      -0.27228      -0.48879
                        -----------------------------------------
Magnitude (a.u.)       :      4.62646
Magnitude (Debye)      :     11.75953

Rotational constants in cm-1:     0.019128     0.011451     0.010697
Rotational constants in MHz :   573.434307   343.290161   320.702696

                             ****ORCA TERMINATED NORMALLY****
TOTAL RUN TIME: 0 days 23 hours 48 minutes 54 seconds 526 msec
