                         Program Version 4.1.2  - RELEASE  -
|  1> ! aug-cc-pVTZ aug-cc-pVTZ/C DLPNO-CCSD(T1) TightSCF NormalPNO UNO MiniPrint AutoAux
|  2> %pal nproc 10 end
|  3> %maxcore 20000
|  4> %mdci
|  5>      density none
|  6> end
|  7>
|  8> * xyz 0 6
|  9>  O     -0.42312300     -0.16964200     -0.52877000
| 10>  C     -1.48495800     -1.15999800     -0.32115300
| 11>  C     -2.71594200     -0.13899600     -0.27387300
| 12>  C     -1.89725600      1.15331000     -0.25180300
| 13>  C     -1.81521600      1.97604200     -1.48582700
| 14> Fe      1.37765700      0.02670100      0.02405900
| 15> Cl      1.87538900      1.98565500     -0.86509900
| 16>  C     -1.56555200      1.81615000      1.03612400
| 17> Cl      2.41914600     -1.73834200     -0.74796500
| 18> Cl      1.40003100      0.14768500      2.22968900
| 19>  H     -3.23953700     -0.19158300     -1.23392500
| 20>  H     -2.43883500      2.42460400      1.31941000
| 21>  H     -1.36959400      1.10905300      1.84181900
| 22>  H     -0.70942800      2.48568200      0.92501500
| 23>  H     -2.64417200      2.70135400     -1.45390300
| 24>  H     -0.87560400      2.53408800     -1.52024900
| 25>  H     -1.92250400      1.37010200     -2.38677300
| 26>  C     -3.73475200     -0.30642200      0.85059000
| 27>  H     -4.50665900      0.46943900      0.79774200
| 28>  H     -4.23559600     -1.27456600      0.75289500
| 29>  H     -3.27747200     -0.26553700      1.84190700
| 30>  C     -1.24708400     -1.93910500      0.96324300
| 31>  H     -2.06551900     -2.64349300      1.14432800
| 32>  H     -0.32027000     -2.51429400      0.86824300
| 33>  H     -1.14192100     -1.28538100      1.83115300
| 34>  C     -1.52434200     -2.07622900     -1.53347000
| 35>  H     -0.58209700     -2.62825000     -1.60775700
| 36>  H     -2.34721400     -2.79552600     -1.44885100
| 37>  H     -1.65468100     -1.49626200     -2.45206000
| 38> *
| 39>
| 40>
| 41>                          ****END OF INPUT****

CARTESIAN COORDINATES (ANGSTROEM)
---------------------------------
  O     -0.423123   -0.169642   -0.528770
  C     -1.484958   -1.159998   -0.321153
  C     -2.715942   -0.138996   -0.273873
  C     -1.897256    1.153310   -0.251803
  C     -1.815216    1.976042   -1.485827
  Fe     1.377657    0.026701    0.024059
  Cl     1.875389    1.985655   -0.865099
  C     -1.565552    1.816150    1.036124
  Cl     2.419146   -1.738342   -0.747965
  Cl     1.400031    0.147685    2.229689
  H     -3.239537   -0.191583   -1.233925
  H     -2.438835    2.424604    1.319410
  H     -1.369594    1.109053    1.841819
  H     -0.709428    2.485682    0.925015
  H     -2.644172    2.701354   -1.453903
  H     -0.875604    2.534088   -1.520249
  H     -1.922504    1.370102   -2.386773
  C     -3.734752   -0.306422    0.850590
  H     -4.506659    0.469439    0.797742
  H     -4.235596   -1.274566    0.752895
  H     -3.277472   -0.265537    1.841907
  C     -1.247084   -1.939105    0.963243
  H     -2.065519   -2.643493    1.144328
  H     -0.320270   -2.514294    0.868243
  H     -1.141921   -1.285381    1.831153
  C     -1.524342   -2.076229   -1.533470
  H     -0.582097   -2.628250   -1.607757
  H     -2.347214   -2.795526   -1.448851
  H     -1.654681   -1.496262   -2.452060

ORBITAL ENERGIES
----------------
                 SPIN UP ORBITALS
  NO   OCC          E(Eh)            E(eV)
   0   1.0000    -261.551476     -7117.1775
   1   1.0000    -104.778421     -2851.1658
   2   1.0000    -104.776761     -2851.1206
   3   1.0000    -104.774828     -2851.0680
   4   1.0000     -32.219407      -876.7346
   5   1.0000     -27.695392      -753.6299
   6   1.0000     -27.695073      -753.6213
   7   1.0000     -27.694772      -753.6131
   8   1.0000     -20.568871      -559.7074
   9   1.0000     -11.400899      -310.2342
  10   1.0000     -11.331328      -308.3411
  11   1.0000     -11.290974      -307.2430
  12   1.0000     -11.276399      -306.8464
  13   1.0000     -11.275879      -306.8323
  14   1.0000     -11.263737      -306.5019
  15   1.0000     -11.236054      -305.7486
  16   1.0000     -11.235651      -305.7376
  17   1.0000     -10.505050      -285.8569
  18   1.0000     -10.503479      -285.8142
  19   1.0000     -10.501473      -285.7596
  20   1.0000      -7.971878      -216.9258
  21   1.0000      -7.971142      -216.9058
  22   1.0000      -7.971062      -216.9036
  23   1.0000      -7.970356      -216.8844
  24   1.0000      -7.969525      -216.8618
  25   1.0000      -7.969503      -216.8612
  26   1.0000      -7.968274      -216.8278
  27   1.0000      -7.967595      -216.8093
  28   1.0000      -7.967520      -216.8072
  29   1.0000      -4.574746      -124.4852
  30   1.0000      -3.187173       -86.7274
  31   1.0000      -3.186863       -86.7190
  32   1.0000      -3.186309       -86.7039
  33   1.0000      -1.360086       -37.0098
  34   1.0000      -1.165356       -31.7110
  35   1.0000      -1.096187       -29.8288
  36   1.0000      -1.050252       -28.5788
  37   1.0000      -1.044792       -28.4302
  38   1.0000      -1.042681       -28.3728
  39   1.0000      -1.033952       -28.1353
  40   1.0000      -1.010425       -27.4951
  41   1.0000      -0.964641       -26.2492
  42   1.0000      -0.935194       -25.4479
  43   1.0000      -0.904509       -24.6129
  44   1.0000      -0.904001       -24.5991
  45   1.0000      -0.902246       -24.5514
  46   1.0000      -0.895514       -24.3682
  47   1.0000      -0.894873       -24.3507
  48   1.0000      -0.804638       -21.8953
  49   1.0000      -0.756958       -20.5979
  50   1.0000      -0.697413       -18.9776
  51   1.0000      -0.689587       -18.7646
  52   1.0000      -0.670717       -18.2511
  53   1.0000      -0.634788       -17.2735
  54   1.0000      -0.632581       -17.2134
  55   1.0000      -0.617815       -16.8116
  56   1.0000      -0.601904       -16.3786
  57   1.0000      -0.593995       -16.1634
  58   1.0000      -0.590660       -16.0727
  59   1.0000      -0.583534       -15.8788
  60   1.0000      -0.571617       -15.5545
  61   1.0000      -0.559605       -15.2276
  62   1.0000      -0.543025       -14.7765
  63   1.0000      -0.535263       -14.5652
  64   1.0000      -0.528608       -14.3842
  65   1.0000      -0.517558       -14.0835
  66   1.0000      -0.504400       -13.7254
  67   1.0000      -0.476768       -12.9735
  68   1.0000      -0.470698       -12.8084
  69   1.0000      -0.455857       -12.4045
  70   1.0000      -0.447789       -12.1850
  71   1.0000      -0.429260       -11.6808
  72   1.0000      -0.425106       -11.5677
  73   1.0000      -0.421407       -11.4671
  74   1.0000      -0.417506       -11.3609
  75   1.0000      -0.415319       -11.3014
  76   1.0000      -0.414326       -11.2744
  77   0.0000       0.007884         0.2145
  78   0.0000       0.020325         0.5531
  79   0.0000       0.022500         0.6123
  80   0.0000       0.030750         0.8368
  81   0.0000       0.037587         1.0228

                 SPIN DOWN ORBITALS
  NO   OCC          E(Eh)            E(eV)
   0   1.0000    -261.547923     -7117.0808
   1   1.0000    -104.777060     -2851.1287
   2   1.0000    -104.775352     -2851.0823
   3   1.0000    -104.773356     -2851.0280
   4   1.0000     -32.057427      -872.3269
   5   1.0000     -27.535458      -749.2779
   6   1.0000     -27.535293      -749.2734
   7   1.0000     -27.534901      -749.2628
   8   1.0000     -20.563630      -559.5648
   9   1.0000     -11.400947      -310.2355
  10   1.0000     -11.331139      -308.3360
  11   1.0000     -11.290893      -307.2408
  12   1.0000     -11.276381      -306.8459
  13   1.0000     -11.275885      -306.8324
  14   1.0000     -11.263718      -306.5014
  15   1.0000     -11.236023      -305.7477
  16   1.0000     -11.235642      -305.7373
  17   1.0000     -10.503589      -285.8172
  18   1.0000     -10.501965      -285.7730
  19   1.0000     -10.499899      -285.7168
  20   1.0000      -7.969543      -216.8623
  21   1.0000      -7.968897      -216.8447
  22   1.0000      -7.968831      -216.8429
  23   1.0000      -7.967866      -216.8167
  24   1.0000      -7.967262      -216.8002
  25   1.0000      -7.967208      -216.7988
  26   1.0000      -7.965878      -216.7626
  27   1.0000      -7.965087      -216.7410
  28   1.0000      -7.965035      -216.7396
  29   1.0000      -4.132674      -112.4558
  30   1.0000      -2.654568       -72.2345
  31   1.0000      -2.654502       -72.2327
  32   1.0000      -2.653436       -72.2037
  33   1.0000      -1.346710       -36.6458
  34   1.0000      -1.163237       -31.6533
  35   1.0000      -1.093851       -29.7652
  36   1.0000      -1.035559       -28.1790
  37   1.0000      -1.032729       -28.1020
  38   1.0000      -1.024546       -27.8793
  39   1.0000      -1.021968       -27.8092
  40   1.0000      -1.010022       -27.4841
  41   1.0000      -0.963895       -26.2289
  42   1.0000      -0.928733       -25.2721
  43   1.0000      -0.806386       -21.9429
  44   1.0000      -0.760582       -20.6965
  45   1.0000      -0.697466       -18.9790
  46   1.0000      -0.689376       -18.7589
  47   1.0000      -0.671772       -18.2798
  48   1.0000      -0.635409       -17.2904
  49   1.0000      -0.632593       -17.2137
  50   1.0000      -0.616468       -16.7750
  51   1.0000      -0.601923       -16.3792
  52   1.0000      -0.593042       -16.1375
  53   1.0000      -0.590490       -16.0680
  54   1.0000      -0.582136       -15.8407
  55   1.0000      -0.571365       -15.5476
  56   1.0000      -0.559022       -15.2118
  57   1.0000      -0.538121       -14.6430
  58   1.0000      -0.534892       -14.5552
  59   1.0000      -0.526279       -14.3208
  60   1.0000      -0.512350       -13.9417
  61   1.0000      -0.503987       -13.7142
  62   1.0000      -0.473905       -12.8956
  63   1.0000      -0.470248       -12.7961
  64   1.0000      -0.463800       -12.6206
  65   1.0000      -0.454557       -12.3691
  66   1.0000      -0.440037       -11.9740
  67   1.0000      -0.436277       -11.8717
  68   1.0000      -0.434479       -11.8228
  69   1.0000      -0.415798       -11.3144
  70   1.0000      -0.410461       -11.1692
  71   1.0000      -0.401498       -10.9253
  72   0.0000       0.007866         0.2141
  73   0.0000       0.020235         0.5506
  74   0.0000       0.022480         0.6117
  75   0.0000       0.030789         0.8378
  76   0.0000       0.037594         1.0230

E(0)                                       ...  -3028.447359716
E(0)                                       ...  -3028.447359716
E(CORR)(strong-pairs)                      ...     -2.874809444
E(CORR)(weak-pairs)                        ...     -0.034867319
E(CORR)(corrected)                         ...     -2.909676763
E(TOT)                                     ...  -3031.357036478
E(CCSD(T))                                 ...  -3031.475782620
FINAL SINGLE POINT ENERGY     -3031.475782619535

DIPOLE MOMENT
-------------
                                X             Y             Z
Electronic contribution:     40.48992       3.13880       1.38643
Nuclear contribution   :    -45.05048      -2.57312      -1.69925
                        -----------------------------------------
Total Dipole Moment    :     -4.56055       0.56568      -0.31283
                        -----------------------------------------
Magnitude (a.u.)       :      4.60614
Magnitude (Debye)      :     11.70787

Rotational constants in cm-1:     0.019058     0.012084     0.010756
Rotational constants in MHz :   571.357490   362.281460   322.471553

                             ****ORCA TERMINATED NORMALLY****
TOTAL RUN TIME: 0 days 21 hours 10 minutes 48 seconds 732 msec
