                         Program Version 4.1.2  - RELEASE  -
|  1> ! aug-cc-pVTZ aug-cc-pVTZ/C DLPNO-CCSD(T1) TightSCF NormalPNO UNO MiniPrint AutoAux
|  2> %pal nproc 10 end
|  3> %maxcore 20000
|  4> %mdci
|  5>      density none
|  6> end
|  7>
|  8> * xyz 0 6
|  9>  O      0.28683500      0.20545700     -0.47198700
| 10>  C      1.12245800      1.13799000     -0.18796200
| 11>  C      2.66953100      0.14811200      0.92971900
| 12>  C      3.13853800     -0.64416600     -0.08997500
| 13>  C      4.26753400     -0.22022100     -0.97393500
| 14> Fe     -1.56243300     -0.17287500     -0.10876500
| 15> Cl     -1.90206900     -2.06157900     -1.15466200
| 16>  C      2.47494700     -1.94392300     -0.39910900
| 17> Cl     -2.54940300      1.60340600     -0.94090900
| 18> Cl     -1.85082600     -0.33205500      2.06602100
| 19>  H      3.24724700      1.04636400      1.14352900
| 20>  H      2.98894200     -2.50015600     -1.18629600
| 21>  H      2.38149600     -2.57817800      0.48912700
| 22>  H      1.44471300     -1.73107400     -0.73221300
| 23>  H      5.10443000     -0.91795900     -0.82989100
| 24>  H      3.99519700     -0.28734000     -2.03473100
| 25>  H      4.62429600      0.78866200     -0.75421500
| 26>  C      1.87906200     -0.43599900      2.08151200
| 27>  H      2.44796700     -1.24585100      2.55371200
| 28>  H      1.68051800      0.31384200      2.84880400
| 29>  H      0.91936000     -0.84942800      1.76332600
| 30>  C      0.74476700      2.11053000      0.91138100
| 31>  H      1.58575200      2.72489900      1.23852400
| 32>  H     -0.01353000      2.76957700      0.46563100
| 33>  H      0.27904400      1.61040100      1.75960100
| 34>  C      1.84133300      1.74688700     -1.37036200
| 35>  H      1.13426900      2.45300100     -1.82541000
| 36>  H      2.73723500      2.30024000     -1.08118900
| 37>  H      2.08169200      0.99269000     -2.11978300
| 38> *
| 39>
| 40>
| 41>                          ****END OF INPUT****

CARTESIAN COORDINATES (ANGSTROEM)
---------------------------------
  O      0.286835    0.205457   -0.471987
  C      1.122458    1.137990   -0.187962
  C      2.669531    0.148112    0.929719
  C      3.138538   -0.644166   -0.089975
  C      4.267534   -0.220221   -0.973935
  Fe    -1.562433   -0.172875   -0.108765
  Cl    -1.902069   -2.061579   -1.154662
  C      2.474947   -1.943923   -0.399109
  Cl    -2.549403    1.603406   -0.940909
  Cl    -1.850826   -0.332055    2.066021
  H      3.247247    1.046364    1.143529
  H      2.988942   -2.500156   -1.186296
  H      2.381496   -2.578178    0.489127
  H      1.444713   -1.731074   -0.732213
  H      5.104430   -0.917959   -0.829891
  H      3.995197   -0.287340   -2.034731
  H      4.624296    0.788662   -0.754215
  C      1.879062   -0.435999    2.081512
  H      2.447967   -1.245851    2.553712
  H      1.680518    0.313842    2.848804
  H      0.919360   -0.849428    1.763326
  C      0.744767    2.110530    0.911381
  H      1.585752    2.724899    1.238524
  H     -0.013530    2.769577    0.465631
  H      0.279044    1.610401    1.759601
  C      1.841333    1.746887   -1.370362
  H      1.134269    2.453001   -1.825410
  H      2.737235    2.300240   -1.081189
  H      2.081692    0.992690   -2.119783

ORBITAL ENERGIES
----------------
                 SPIN UP ORBITALS
  NO   OCC          E(Eh)            E(eV)
   0   1.0000    -261.561062     -7117.4383
   1   1.0000    -104.781889     -2851.2601
   2   1.0000    -104.779666     -2851.1997
   3   1.0000    -104.778408     -2851.1654
   4   1.0000     -32.228863      -876.9919
   5   1.0000     -27.705171      -753.8960
   6   1.0000     -27.704295      -753.8722
   7   1.0000     -27.704155      -753.8684
   8   1.0000     -20.588092      -560.2305
   9   1.0000     -11.406476      -310.3860
  10   1.0000     -11.318776      -307.9996
  11   1.0000     -11.271598      -306.7158
  12   1.0000     -11.266791      -306.5850
  13   1.0000     -11.265210      -306.5419
  14   1.0000     -11.261898      -306.4518
  15   1.0000     -11.253316      -306.2183
  16   1.0000     -11.243389      -305.9482
  17   1.0000     -10.508557      -285.9524
  18   1.0000     -10.506305      -285.8911
  19   1.0000     -10.505006      -285.8558
  20   1.0000      -7.975405      -217.0218
  21   1.0000      -7.974616      -217.0003
  22   1.0000      -7.974598      -216.9998
  23   1.0000      -7.973179      -216.9612
  24   1.0000      -7.972403      -216.9401
  25   1.0000      -7.972321      -216.9379
  26   1.0000      -7.971814      -216.9241
  27   1.0000      -7.971142      -216.9058
  28   1.0000      -7.971053      -216.9034
  29   1.0000      -4.584020      -124.7375
  30   1.0000      -3.197073       -86.9968
  31   1.0000      -3.195619       -86.9572
  32   1.0000      -3.195392       -86.9510
  33   1.0000      -1.429515       -38.8991
  34   1.0000      -1.159206       -31.5436
  35   1.0000      -1.086849       -29.5747
  36   1.0000      -1.054239       -28.6873
  37   1.0000      -1.048952       -28.5434
  38   1.0000      -1.046429       -28.4748
  39   1.0000      -1.035552       -28.1788
  40   1.0000      -0.995493       -27.0887
  41   1.0000      -0.987520       -26.8718
  42   1.0000      -0.929823       -25.3018
  43   1.0000      -0.913966       -24.8703
  44   1.0000      -0.913198       -24.8494
  45   1.0000      -0.912596       -24.8330
  46   1.0000      -0.902977       -24.5713
  47   1.0000      -0.902597       -24.5609
  48   1.0000      -0.798673       -21.7330
  49   1.0000      -0.754888       -20.5416
  50   1.0000      -0.692584       -18.8462
  51   1.0000      -0.683141       -18.5892
  52   1.0000      -0.681707       -18.5502
  53   1.0000      -0.676763       -18.4156
  54   1.0000      -0.644355       -17.5338
  55   1.0000      -0.624010       -16.9802
  56   1.0000      -0.604874       -16.4595
  57   1.0000      -0.596379       -16.2283
  58   1.0000      -0.582082       -15.8393
  59   1.0000      -0.579319       -15.7641
  60   1.0000      -0.569857       -15.5066
  61   1.0000      -0.561905       -15.2902
  62   1.0000      -0.560460       -15.2509
  63   1.0000      -0.544511       -14.8169
  64   1.0000      -0.536100       -14.5880
  65   1.0000      -0.520360       -14.1597
  66   1.0000      -0.517971       -14.0947
  67   1.0000      -0.486764       -13.2455
  68   1.0000      -0.467569       -12.7232
  69   1.0000      -0.461053       -12.5459
  70   1.0000      -0.435524       -11.8512
  71   1.0000      -0.430431       -11.7126
  72   1.0000      -0.428005       -11.6466
  73   1.0000      -0.419789       -11.4230
  74   1.0000      -0.418215       -11.3802
  75   1.0000      -0.417337       -11.3563
  76   1.0000      -0.378030       -10.2867
  77   0.0000       0.009319         0.2536
  78   0.0000       0.020710         0.5636
  79   0.0000       0.021482         0.5845
  80   0.0000       0.027333         0.7438
  81   0.0000       0.034902         0.9497

                 SPIN DOWN ORBITALS
  NO   OCC          E(Eh)            E(eV)
   0   1.0000    -261.557495     -7117.3413
   1   1.0000    -104.780421     -2851.2202
   2   1.0000    -104.778177     -2851.1592
   3   1.0000    -104.776915     -2851.1248
   4   1.0000     -32.066809      -872.5822
   5   1.0000     -27.544760      -749.5310
   6   1.0000     -27.544695      -749.5293
   7   1.0000     -27.544445      -749.5224
   8   1.0000     -20.584239      -560.1256
   9   1.0000     -11.406375      -310.3832
  10   1.0000     -11.317818      -307.9735
  11   1.0000     -11.271723      -306.7192
  12   1.0000     -11.266692      -306.5823
  13   1.0000     -11.265809      -306.5582
  14   1.0000     -11.261917      -306.4523
  15   1.0000     -11.253431      -306.2214
  16   1.0000     -11.243339      -305.9468
  17   1.0000     -10.506987      -285.9096
  18   1.0000     -10.504713      -285.8478
  19   1.0000     -10.503415      -285.8125
  20   1.0000      -7.972891      -216.9534
  21   1.0000      -7.972212      -216.9349
  22   1.0000      -7.972157      -216.9334
  23   1.0000      -7.970609      -216.8913
  24   1.0000      -7.969962      -216.8737
  25   1.0000      -7.969864      -216.8710
  26   1.0000      -7.969394      -216.8582
  27   1.0000      -7.968599      -216.8366
  28   1.0000      -7.968504      -216.8340
  29   1.0000      -4.141744      -112.7026
  30   1.0000      -2.663391       -72.4745
  31   1.0000      -2.663309       -72.4723
  32   1.0000      -2.662821       -72.4590
  33   1.0000      -1.419663       -38.6310
  34   1.0000      -1.157648       -31.5012
  35   1.0000      -1.084362       -29.5070
  36   1.0000      -1.039633       -28.2899
  37   1.0000      -1.035551       -28.1788
  38   1.0000      -1.026707       -27.9381
  39   1.0000      -1.024757       -27.8851
  40   1.0000      -0.994955       -27.0741
  41   1.0000      -0.987435       -26.8695
  42   1.0000      -0.913577       -24.8597
  43   1.0000      -0.813471       -22.1357
  44   1.0000      -0.754895       -20.5417
  45   1.0000      -0.695770       -18.9329
  46   1.0000      -0.683170       -18.5900
  47   1.0000      -0.680426       -18.5153
  48   1.0000      -0.676531       -18.4094
  49   1.0000      -0.644284       -17.5319
  50   1.0000      -0.622939       -16.9510
  51   1.0000      -0.604563       -16.4510
  52   1.0000      -0.595984       -16.2175
  53   1.0000      -0.581978       -15.8364
  54   1.0000      -0.579235       -15.7618
  55   1.0000      -0.569285       -15.4910
  56   1.0000      -0.561884       -15.2896
  57   1.0000      -0.560491       -15.2517
  58   1.0000      -0.543040       -14.7769
  59   1.0000      -0.534822       -14.5533
  60   1.0000      -0.518193       -14.1007
  61   1.0000      -0.510559       -13.8930
  62   1.0000      -0.485451       -13.2098
  63   1.0000      -0.472598       -12.8600
  64   1.0000      -0.471146       -12.8205
  65   1.0000      -0.443166       -12.0592
  66   1.0000      -0.439937       -11.9713
  67   1.0000      -0.437741       -11.9115
  68   1.0000      -0.423364       -11.5203
  69   1.0000      -0.417979       -11.3738
  70   1.0000      -0.402979       -10.9656
  71   1.0000      -0.376833       -10.2541
  72   0.0000       0.009317         0.2535
  73   0.0000       0.020712         0.5636
  74   0.0000       0.021533         0.5860
  75   0.0000       0.027252         0.7416
  76   0.0000       0.034227         0.9314

E(0)                                       ...  -3028.438238833
E(0)                                       ...  -3028.438238833
E(CORR)(strong-pairs)                      ...     -2.873685800
E(CORR)(weak-pairs)                        ...     -0.035061385
E(CORR)(corrected)                         ...     -2.908747185
E(TOT)                                     ...  -3031.346986017
E(CCSD(T))                                 ...  -3031.467194636
FINAL SINGLE POINT ENERGY     -3031.467194635985

DIPOLE MOMENT
-------------
                                X             Y             Z
Electronic contribution:    -45.16180      -5.49454      -2.09458
Nuclear contribution   :     49.75422       6.44110       2.07110
                        -----------------------------------------
Total Dipole Moment    :      4.59242       0.94656      -0.02348
                        -----------------------------------------
Magnitude (a.u.)       :      4.68901
Magnitude (Debye)      :     11.91852

Rotational constants in cm-1:     0.020019     0.009855     0.009442
Rotational constants in MHz :   600.165732   295.442464   283.065030

                             ****ORCA TERMINATED NORMALLY****
TOTAL RUN TIME: 1 days 1 hours 34 minutes 18 seconds 562 msec
