                         Program Version 4.1.2  - RELEASE  -
|  1> ! aug-cc-pVTZ aug-cc-pVTZ/C DLPNO-CCSD(T1) TightSCF NormalPNO UNO MiniPrint AutoAux
|  2> %pal nproc 10 end
|  3> %maxcore 20000
|  4> %mdci
|  5>      density none
|  6> end
|  7>
|  8> * xyz 0 6
|  9>  O     -0.34012700     -0.11491200     -0.55035800
| 10>  C     -1.28189000     -1.03794700     -0.48043700
| 11>  C     -3.02743300     -0.04128700     -0.07764600
| 12>  C     -2.21855700      1.07666600     -0.21246900
| 13>  C     -2.04572100      1.76028900     -1.52518700
| 14> Fe      1.43324400      0.05147500      0.04628300
| 15> Cl      1.98865100      2.02047900     -0.77325300
| 16>  C     -1.59222800      1.75152100      0.96080100
| 17> Cl      2.46331200     -1.71519400     -0.76722200
| 18> Cl      1.37866600      0.03793600      2.25988500
| 19>  H     -3.59804700     -0.31722500     -0.96164400
| 20>  H     -2.34429300      2.43783800      1.37944100
| 21>  H     -1.30346500      1.05967600      1.75300500
| 22>  H     -0.71945700      2.33811000      0.66796100
| 23>  H     -2.56058000      2.72989300     -1.45284300
| 24>  H     -0.98914800      1.96558300     -1.71856500
| 25>  H     -2.48589800      1.20725000     -2.35702500
| 26>  C     -3.65330100     -0.46856800      1.22920400
| 27>  H     -4.55890900      0.12414000      1.41175400
| 28>  H     -3.95721200     -1.51838800      1.19808600
| 29>  H     -2.99215500     -0.33133600      2.08710500
| 30>  C     -1.17999100     -1.99897100      0.67785200
| 31>  H     -2.03385000     -2.67448500      0.74663400
| 32>  H     -0.28036800     -2.59872600      0.47829500
| 33>  H     -1.01500100     -1.48433600      1.62501100
| 34>  C     -1.63211900     -1.66095200     -1.81319800
| 35>  H     -0.75186900     -2.24836000     -2.10782500
| 36>  H     -2.49757300     -2.32507600     -1.75106500
| 37>  H     -1.78876800     -0.90286900     -2.58229900
| 38> *
| 39>
| 40>
| 41>                          ****END OF INPUT****

CARTESIAN COORDINATES (ANGSTROEM)
---------------------------------
  O     -0.340127   -0.114912   -0.550358
  C     -1.281890   -1.037947   -0.480437
  C     -3.027433   -0.041287   -0.077646
  C     -2.218557    1.076666   -0.212469
  C     -2.045721    1.760289   -1.525187
  Fe     1.433244    0.051475    0.046283
  Cl     1.988651    2.020479   -0.773253
  C     -1.592228    1.751521    0.960801
  Cl     2.463312   -1.715194   -0.767222
  Cl     1.378666    0.037936    2.259885
  H     -3.598047   -0.317225   -0.961644
  H     -2.344293    2.437838    1.379441
  H     -1.303465    1.059676    1.753005
  H     -0.719457    2.338110    0.667961
  H     -2.560580    2.729893   -1.452843
  H     -0.989148    1.965583   -1.718565
  H     -2.485898    1.207250   -2.357025
  C     -3.653301   -0.468568    1.229204
  H     -4.558909    0.124140    1.411754
  H     -3.957212   -1.518388    1.198086
  H     -2.992155   -0.331336    2.087105
  C     -1.179991   -1.998971    0.677852
  H     -2.033850   -2.674485    0.746634
  H     -0.280368   -2.598726    0.478295
  H     -1.015001   -1.484336    1.625011
  C     -1.632119   -1.660952   -1.813198
  H     -0.751869   -2.248360   -2.107825
  H     -2.497573   -2.325076   -1.751065
  H     -1.788768   -0.902869   -2.582299

ORBITAL ENERGIES
----------------
                 SPIN UP ORBITALS
  NO   OCC          E(Eh)            E(eV)
   0   1.0000    -261.554778     -7117.2673
   1   1.0000    -104.778704     -2851.1735
   2   1.0000    -104.778108     -2851.1573
   3   1.0000    -104.777288     -2851.1350
   4   1.0000     -32.222657      -876.8231
   5   1.0000     -27.698689      -753.7196
   6   1.0000     -27.698281      -753.7086
   7   1.0000     -27.698080      -753.7031
   8   1.0000     -20.560536      -559.4806
   9   1.0000     -11.397542      -310.1429
  10   1.0000     -11.350446      -308.8613
  11   1.0000     -11.273586      -306.7699
  12   1.0000     -11.264192      -306.5143
  13   1.0000     -11.259916      -306.3979
  14   1.0000     -11.259800      -306.3947
  15   1.0000     -11.259615      -306.3897
  16   1.0000     -11.255055      -306.2656
  17   1.0000     -10.505314      -285.8641
  18   1.0000     -10.504630      -285.8455
  19   1.0000     -10.503841      -285.8240
  20   1.0000      -7.972197      -216.9345
  21   1.0000      -7.971440      -216.9139
  22   1.0000      -7.971366      -216.9119
  23   1.0000      -7.971319      -216.9106
  24   1.0000      -7.970734      -216.8947
  25   1.0000      -7.970682      -216.8933
  26   1.0000      -7.970646      -216.8923
  27   1.0000      -7.969944      -216.8732
  28   1.0000      -7.969856      -216.8708
  29   1.0000      -4.578075      -124.5757
  30   1.0000      -3.190858       -86.8277
  31   1.0000      -3.190041       -86.8054
  32   1.0000      -3.189548       -86.7920
  33   1.0000      -1.408734       -38.3336
  34   1.0000      -1.168624       -31.7999
  35   1.0000      -1.088168       -29.6106
  36   1.0000      -1.050851       -28.5951
  37   1.0000      -1.045374       -28.4461
  38   1.0000      -1.043810       -28.4035
  39   1.0000      -1.039349       -28.2821
  40   1.0000      -0.998550       -27.1719
  41   1.0000      -0.986068       -26.8323
  42   1.0000      -0.931779       -25.3550
  43   1.0000      -0.918196       -24.9854
  44   1.0000      -0.907671       -24.6990
  45   1.0000      -0.907602       -24.6971
  46   1.0000      -0.898482       -24.4489
  47   1.0000      -0.898085       -24.4381
  48   1.0000      -0.788659       -21.4605
  49   1.0000      -0.760089       -20.6831
  50   1.0000      -0.696853       -18.9623
  51   1.0000      -0.692307       -18.8386
  52   1.0000      -0.679788       -18.4980
  53   1.0000      -0.660602       -17.9759
  54   1.0000      -0.643690       -17.5157
  55   1.0000      -0.622534       -16.9400
  56   1.0000      -0.601192       -16.3593
  57   1.0000      -0.594373       -16.1737
  58   1.0000      -0.586353       -15.9555
  59   1.0000      -0.580104       -15.7854
  60   1.0000      -0.573619       -15.6090
  61   1.0000      -0.566487       -15.4149
  62   1.0000      -0.554478       -15.0881
  63   1.0000      -0.550303       -14.9745
  64   1.0000      -0.541312       -14.7298
  65   1.0000      -0.526674       -14.3315
  66   1.0000      -0.513292       -13.9674
  67   1.0000      -0.482197       -13.1212
  68   1.0000      -0.465828       -12.6758
  69   1.0000      -0.455130       -12.3847
  70   1.0000      -0.433087       -11.7849
  71   1.0000      -0.428385       -11.6569
  72   1.0000      -0.426261       -11.5992
  73   1.0000      -0.418905       -11.3990
  74   1.0000      -0.416865       -11.3435
  75   1.0000      -0.416031       -11.3208
  76   1.0000      -0.380257       -10.3473
  77   0.0000       0.009946         0.2706
  78   0.0000       0.020585         0.5601
  79   0.0000       0.022394         0.6094
  80   0.0000       0.030238         0.8228
  81   0.0000       0.038311         1.0425

                 SPIN DOWN ORBITALS
  NO   OCC          E(Eh)            E(eV)
   0   1.0000    -261.551229     -7117.1708
   1   1.0000    -104.777306     -2851.1354
   2   1.0000    -104.776733     -2851.1199
   3   1.0000    -104.775845     -2851.0957
   4   1.0000     -32.060619      -872.4138
   5   1.0000     -27.538636      -749.3644
   6   1.0000     -27.538516      -749.3611
   7   1.0000     -27.538120      -749.3503
   8   1.0000     -20.555437      -559.3419
   9   1.0000     -11.397489      -310.1415
  10   1.0000     -11.350427      -308.8608
  11   1.0000     -11.273243      -306.7605
  12   1.0000     -11.264184      -306.5140
  13   1.0000     -11.259937      -306.3985
  14   1.0000     -11.259702      -306.3921
  15   1.0000     -11.259652      -306.3907
  16   1.0000     -11.255019      -306.2646
  17   1.0000     -10.503813      -285.8233
  18   1.0000     -10.503160      -285.8055
  19   1.0000     -10.502296      -285.7820
  20   1.0000      -7.969700      -216.8666
  21   1.0000      -7.969134      -216.8512
  22   1.0000      -7.969132      -216.8511
  23   1.0000      -7.969059      -216.8491
  24   1.0000      -7.968444      -216.8324
  25   1.0000      -7.968350      -216.8298
  26   1.0000      -7.968224      -216.8264
  27   1.0000      -7.967554      -216.8082
  28   1.0000      -7.967469      -216.8059
  29   1.0000      -4.135824      -112.5415
  30   1.0000      -2.657554       -72.3157
  31   1.0000      -2.657480       -72.3137
  32   1.0000      -2.656967       -72.2997
  33   1.0000      -1.395734       -37.9798
  34   1.0000      -1.167472       -31.7685
  35   1.0000      -1.085453       -29.5367
  36   1.0000      -1.038599       -28.2617
  37   1.0000      -1.036264       -28.1982
  38   1.0000      -1.024732       -27.8844
  39   1.0000      -1.023517       -27.8513
  40   1.0000      -0.997965       -27.1560
  41   1.0000      -0.985768       -26.8241
  42   1.0000      -0.927249       -25.2317
  43   1.0000      -0.802087       -21.8259
  44   1.0000      -0.760581       -20.6965
  45   1.0000      -0.696265       -18.9463
  46   1.0000      -0.693249       -18.8643
  47   1.0000      -0.681311       -18.5394
  48   1.0000      -0.659754       -17.9528
  49   1.0000      -0.643509       -17.5108
  50   1.0000      -0.622516       -16.9395
  51   1.0000      -0.600266       -16.3341
  52   1.0000      -0.594151       -16.1677
  53   1.0000      -0.586282       -15.9536
  54   1.0000      -0.579935       -15.7808
  55   1.0000      -0.573375       -15.6023
  56   1.0000      -0.566359       -15.4114
  57   1.0000      -0.553877       -15.0718
  58   1.0000      -0.549976       -14.9656
  59   1.0000      -0.536075       -14.5873
  60   1.0000      -0.526282       -14.3209
  61   1.0000      -0.506776       -13.7901
  62   1.0000      -0.478953       -13.0330
  63   1.0000      -0.469641       -12.7796
  64   1.0000      -0.465922       -12.6784
  65   1.0000      -0.440329       -11.9820
  66   1.0000      -0.437471       -11.9042
  67   1.0000      -0.435709       -11.8562
  68   1.0000      -0.423763       -11.5312
  69   1.0000      -0.415470       -11.3055
  70   1.0000      -0.402714       -10.9584
  71   1.0000      -0.378050       -10.2873
  72   0.0000       0.009947         0.2707
  73   0.0000       0.020542         0.5590
  74   0.0000       0.022373         0.6088
  75   0.0000       0.030272         0.8237
  76   0.0000       0.038287         1.0418

E(0)                                       ...  -3028.421277265
E(0)                                       ...  -3028.421277265
E(CORR)(strong-pairs)                      ...     -2.872981647
E(CORR)(weak-pairs)                        ...     -0.035408598
E(CORR)(corrected)                         ...     -2.908390245
E(TOT)                                     ...  -3031.329667510
E(CCSD(T))                                 ...  -3031.449342319
FINAL SINGLE POINT ENERGY     -3031.449342318643

DIPOLE MOMENT
-------------
                                X             Y             Z
Electronic contribution:     41.53895       2.93440       2.21013
Nuclear contribution   :    -45.96729      -3.11037      -2.69688
                        -----------------------------------------
Total Dipole Moment    :     -4.42833      -0.17597      -0.48675
                        -----------------------------------------
Magnitude (a.u.)       :      4.45848
Magnitude (Debye)      :     11.33255

Rotational constants in cm-1:     0.019464     0.011372     0.010564
Rotational constants in MHz :   583.519236   340.926239   316.693221

                             ****ORCA TERMINATED NORMALLY****
TOTAL RUN TIME: 0 days 20 hours 53 minutes 33 seconds 970 msec
