                         Program Version 4.1.2  - RELEASE  -
|  1> ! aug-cc-pVTZ aug-cc-pVTZ/C DLPNO-CCSD(T1) TightSCF NormalPNO UNO MiniPrint AutoAux
|  2> %pal nproc 10 end
|  3> %maxcore 20000
|  4> %mdci
|  5>      density none
|  6> end
|  7>
|  8> * xyz 0 6
|  9>  O     -0.26796800     -0.25055700     -0.80491000
| 10>  C     -1.12977800     -1.17380400     -0.63652300
| 11>  C     -2.88157100     -0.22794800      0.51524900
| 12>  C     -2.58445000      0.94662200     -0.10444600
| 13>  C     -3.13475300      1.29274500     -1.45532300
| 14> Fe      1.45026600      0.13804700     -0.00616600
| 15> Cl      2.03628800      2.04333900     -0.89745300
| 16>  C     -1.67655400      1.97904300      0.48014100
| 17> Cl      2.65466100     -1.59918200     -0.58259600
| 18> Cl      1.15608700      0.25496300      2.17665900
| 19>  H     -3.62486400     -0.86180700      0.03455600
| 20>  H     -2.22469200      2.92292500      0.60031300
| 21>  H     -1.25083500      1.70023300      1.44270400
| 22>  H     -0.85338200      2.18819700     -0.21540200
| 23>  H     -3.66351700      2.25264400     -1.39698000
| 24>  H     -2.31942300      1.43419900     -2.17725900
| 25>  H     -3.83274600      0.54348900     -1.83566300
| 26>  C     -2.66483400     -0.49163200      1.98716400
| 27>  H     -3.42652800      0.04380400      2.56848800
| 28>  H     -2.77269100     -1.55295000      2.22272600
| 29>  H     -1.68658400     -0.16283900      2.34458300
| 30>  C     -0.87085500     -2.23901100      0.39565800
| 31>  H     -1.74267400     -2.87047400      0.57189300
| 32>  H     -0.07048000     -2.86135800     -0.03029500
| 33>  H     -0.49650300     -1.82806400      1.33243800
| 34>  C     -1.87805700     -1.61500300     -1.87040300
| 35>  H     -1.19702400     -2.30005300     -2.39429200
| 36>  H     -2.79366900     -2.16152000     -1.63908700
| 37>  H     -2.08206600     -0.78232000     -2.54059900
| 38> *
| 39>
| 40>
| 41>                          ****END OF INPUT****

CARTESIAN COORDINATES (ANGSTROEM)
---------------------------------
  O     -0.267968   -0.250557   -0.804910
  C     -1.129778   -1.173804   -0.636523
  C     -2.881571   -0.227948    0.515249
  C     -2.584450    0.946622   -0.104446
  C     -3.134753    1.292745   -1.455323
  Fe     1.450266    0.138047   -0.006166
  Cl     2.036288    2.043339   -0.897453
  C     -1.676554    1.979043    0.480141
  Cl     2.654661   -1.599182   -0.582596
  Cl     1.156087    0.254963    2.176659
  H     -3.624864   -0.861807    0.034556
  H     -2.224692    2.922925    0.600313
  H     -1.250835    1.700233    1.442704
  H     -0.853382    2.188197   -0.215402
  H     -3.663517    2.252644   -1.396980
  H     -2.319423    1.434199   -2.177259
  H     -3.832746    0.543489   -1.835663
  C     -2.664834   -0.491632    1.987164
  H     -3.426528    0.043804    2.568488
  H     -2.772691   -1.552950    2.222726
  H     -1.686584   -0.162839    2.344583
  C     -0.870855   -2.239011    0.395658
  H     -1.742674   -2.870474    0.571893
  H     -0.070480   -2.861358   -0.030295
  H     -0.496503   -1.828064    1.332438
  C     -1.878057   -1.615003   -1.870403
  H     -1.197024   -2.300053   -2.394292
  H     -2.793669   -2.161520   -1.639087
  H     -2.082066   -0.782320   -2.540599

ORBITAL ENERGIES
----------------
                 SPIN UP ORBITALS
  NO   OCC          E(Eh)            E(eV)
   0   1.0000    -261.567479     -7117.6129
   1   1.0000    -104.788566     -2851.4419
   2   1.0000    -104.784683     -2851.3362
   3   1.0000    -104.783306     -2851.2987
   4   1.0000     -32.235280      -877.1666
   5   1.0000     -27.711574      -754.0703
   6   1.0000     -27.710729      -754.0473
   7   1.0000     -27.710544      -754.0422
   8   1.0000     -20.596861      -560.4691
   9   1.0000     -11.415291      -310.6258
  10   1.0000     -11.296317      -307.3884
  11   1.0000     -11.271281      -306.7072
  12   1.0000     -11.265577      -306.5519
  13   1.0000     -11.256701      -306.3104
  14   1.0000     -11.255794      -306.2857
  15   1.0000     -11.242316      -305.9190
  16   1.0000     -11.239573      -305.8443
  17   1.0000     -10.515252      -286.1346
  18   1.0000     -10.511352      -286.0284
  19   1.0000     -10.509927      -285.9897
  20   1.0000      -7.982109      -217.2042
  21   1.0000      -7.981305      -217.1824
  22   1.0000      -7.981271      -217.1814
  23   1.0000      -7.978216      -217.0983
  24   1.0000      -7.977449      -217.0774
  25   1.0000      -7.977390      -217.0758
  26   1.0000      -7.976729      -217.0578
  27   1.0000      -7.976047      -217.0393
  28   1.0000      -7.975988      -217.0377
  29   1.0000      -4.590344      -124.9096
  30   1.0000      -3.203314       -87.1666
  31   1.0000      -3.201946       -87.1294
  32   1.0000      -3.201723       -87.1233
  33   1.0000      -1.442026       -39.2395
  34   1.0000      -1.144908       -31.1545
  35   1.0000      -1.093492       -29.7554
  36   1.0000      -1.060719       -28.8636
  37   1.0000      -1.054879       -28.7047
  38   1.0000      -1.052016       -28.6268
  39   1.0000      -1.029246       -28.0072
  40   1.0000      -1.002777       -27.2869
  41   1.0000      -0.971866       -26.4458
  42   1.0000      -0.935409       -25.4538
  43   1.0000      -0.919416       -25.0186
  44   1.0000      -0.919349       -25.0167
  45   1.0000      -0.909630       -24.7523
  46   1.0000      -0.908781       -24.7292
  47   1.0000      -0.908031       -24.7088
  48   1.0000      -0.803439       -21.8627
  49   1.0000      -0.743943       -20.2437
  50   1.0000      -0.699694       -19.0397
  51   1.0000      -0.691053       -18.8045
  52   1.0000      -0.683757       -18.6060
  53   1.0000      -0.666117       -18.1260
  54   1.0000      -0.633187       -17.2299
  55   1.0000      -0.622194       -16.9308
  56   1.0000      -0.605025       -16.4636
  57   1.0000      -0.596596       -16.2342
  58   1.0000      -0.583076       -15.8663
  59   1.0000      -0.574831       -15.6419
  60   1.0000      -0.563252       -15.3269
  61   1.0000      -0.557939       -15.1823
  62   1.0000      -0.551268       -15.0008
  63   1.0000      -0.546839       -14.8803
  64   1.0000      -0.537011       -14.6128
  65   1.0000      -0.528310       -14.3761
  66   1.0000      -0.506689       -13.7877
  67   1.0000      -0.493312       -13.4237
  68   1.0000      -0.471877       -12.8404
  69   1.0000      -0.468958       -12.7610
  70   1.0000      -0.440443       -11.9851
  71   1.0000      -0.435564       -11.8523
  72   1.0000      -0.433761       -11.8032
  73   1.0000      -0.425026       -11.5656
  74   1.0000      -0.423849       -11.5335
  75   1.0000      -0.422748       -11.5036
  76   1.0000      -0.369578       -10.0567
  77   0.0000       0.011870         0.3230
  78   0.0000       0.022172         0.6033
  79   0.0000       0.023317         0.6345
  80   0.0000       0.029984         0.8159
  81   0.0000       0.038361         1.0439

                 SPIN DOWN ORBITALS
  NO   OCC          E(Eh)            E(eV)
   0   1.0000    -261.563914     -7117.5159
   1   1.0000    -104.787129     -2851.4028
   2   1.0000    -104.783162     -2851.2948
   3   1.0000    -104.781801     -2851.2578
   4   1.0000     -32.073242      -872.7573
   5   1.0000     -27.551168      -749.7054
   6   1.0000     -27.551116      -749.7040
   7   1.0000     -27.550909      -749.6983
   8   1.0000     -20.592869      -560.3605
   9   1.0000     -11.415205      -310.6235
  10   1.0000     -11.296203      -307.3853
  11   1.0000     -11.271168      -306.7041
  12   1.0000     -11.265563      -306.5516
  13   1.0000     -11.256709      -306.3106
  14   1.0000     -11.255809      -306.2861
  15   1.0000     -11.242313      -305.9189
  16   1.0000     -11.239607      -305.8453
  17   1.0000     -10.513713      -286.0927
  18   1.0000     -10.509726      -285.9842
  19   1.0000     -10.508325      -285.9461
  20   1.0000      -7.979609      -217.1362
  21   1.0000      -7.978964      -217.1186
  22   1.0000      -7.978915      -217.1173
  23   1.0000      -7.975627      -217.0278
  24   1.0000      -7.974937      -217.0091
  25   1.0000      -7.974849      -217.0067
  26   1.0000      -7.974306      -216.9919
  27   1.0000      -7.973484      -216.9695
  28   1.0000      -7.973398      -216.9672
  29   1.0000      -4.148114      -112.8759
  30   1.0000      -2.669739       -72.6473
  31   1.0000      -2.669717       -72.6467
  32   1.0000      -2.669076       -72.6293
  33   1.0000      -1.432007       -38.9669
  34   1.0000      -1.144395       -31.1406
  35   1.0000      -1.090849       -29.6835
  36   1.0000      -1.045628       -28.4530
  37   1.0000      -1.033333       -28.1184
  38   1.0000      -1.030179       -28.0326
  39   1.0000      -1.028548       -27.9882
  40   1.0000      -1.002003       -27.2659
  41   1.0000      -0.971765       -26.4431
  42   1.0000      -0.908884       -24.7320
  43   1.0000      -0.816905       -22.2291
  44   1.0000      -0.744049       -20.2466
  45   1.0000      -0.702430       -19.1141
  46   1.0000      -0.690248       -18.7826
  47   1.0000      -0.682849       -18.5813
  48   1.0000      -0.665935       -18.1210
  49   1.0000      -0.633124       -17.2282
  50   1.0000      -0.621691       -16.9171
  51   1.0000      -0.604515       -16.4497
  52   1.0000      -0.596519       -16.2321
  53   1.0000      -0.582848       -15.8601
  54   1.0000      -0.573630       -15.6093
  55   1.0000      -0.563028       -15.3208
  56   1.0000      -0.557725       -15.1765
  57   1.0000      -0.551035       -14.9944
  58   1.0000      -0.544619       -14.8198
  59   1.0000      -0.535792       -14.5797
  60   1.0000      -0.517594       -14.0844
  61   1.0000      -0.506503       -13.7826
  62   1.0000      -0.493808       -13.4372
  63   1.0000      -0.479069       -13.0361
  64   1.0000      -0.476734       -12.9726
  65   1.0000      -0.448692       -12.2095
  66   1.0000      -0.445523       -12.1233
  67   1.0000      -0.442869       -12.0511
  68   1.0000      -0.427343       -11.6286
  69   1.0000      -0.423537       -11.5250
  70   1.0000      -0.408759       -11.1229
  71   1.0000      -0.368187       -10.0189
  72   0.0000       0.011857         0.3226
  73   0.0000       0.022147         0.6027
  74   0.0000       0.023297         0.6339
  75   0.0000       0.029864         0.8126
  76   0.0000       0.038065         1.0358

E(0)                                       ...  -3028.444803171
E(0)                                       ...  -3028.444803171
E(CORR)(strong-pairs)                      ...     -2.872417670
E(CORR)(weak-pairs)                        ...     -0.036032379
E(CORR)(corrected)                         ...     -2.908450048
E(TOT)                                     ...  -3031.353253219
E(CCSD(T))                                 ...  -3031.472600975
FINAL SINGLE POINT ENERGY     -3031.472600975410

DIPOLE MOMENT
-------------
                                X             Y             Z
Electronic contribution:     42.34985       4.62587       1.44270
Nuclear contribution   :    -46.20677      -5.61566      -2.02109
                        -----------------------------------------
Total Dipole Moment    :     -3.85691      -0.98978      -0.57839
                        -----------------------------------------
Magnitude (a.u.)       :      4.02368
Magnitude (Debye)      :     10.22738

Rotational constants in cm-1:     0.019079     0.011046     0.010388
Rotational constants in MHz :   571.978743   331.136773   311.426725

                             ****ORCA TERMINATED NORMALLY****
TOTAL RUN TIME: 0 days 18 hours 17 minutes 57 seconds 887 msec
