                         Program Version 4.1.2  - RELEASE  -
|  1> ! aug-cc-pVTZ aug-cc-pVTZ/C DLPNO-CCSD(T1) TightSCF NormalPNO UNO MiniPrint AutoAux
|  2> %pal nproc 10 end
|  3> %maxcore 20000
|  4> %mdci
|  5>      density none
|  6> end
|  7>
|  8> * xyz 0 6
|  9>  O     -0.30693200     -0.24693500     -0.71406900
| 10>  C     -1.30869000     -1.15044100     -0.51569600
| 11>  C     -2.63031900     -0.35570400      0.31146100
| 12>  C     -2.39459100      0.99142300     -0.11557900
| 13>  C     -2.83968100      1.48177100     -1.43585500
| 14> Fe      1.37647300      0.10789100     -0.03631400
| 15> Cl      1.76976100      2.16077500     -0.76940100
| 16>  C     -1.62624400      1.93636200      0.71076300
| 17> Cl      2.76102600     -1.45999900     -0.71155500
| 18> Cl      1.14509700      0.10511700      2.19691700
| 19>  H     -3.50830100     -0.78441200     -0.17582800
| 20>  H     -2.37162100      2.47541700      1.32371700
| 21>  H     -0.93959700      1.44562300      1.40222500
| 22>  H     -1.09384000      2.67429000      0.10507100
| 23>  H     -3.16062300      2.52756800     -1.36910200
| 24>  H     -1.93690300      1.48387900     -2.06894400
| 25>  H     -3.61221600      0.87033800     -1.90212800
| 26>  C     -2.63478200     -0.60334600      1.82097000
| 27>  H     -3.40315700      0.01188900      2.30233800
| 28>  H     -2.87424600     -1.64861200      2.02478300
| 29>  H     -1.67231900     -0.38067700      2.28552700
| 30>  C     -0.88760100     -2.33822600      0.34638100
| 31>  H     -1.70321200     -3.05078700      0.49971300
| 32>  H     -0.08235500     -2.84201900     -0.20107700
| 33>  H     -0.48322900     -2.02337300      1.30852100
| 34>  C     -1.85804800     -1.63044400     -1.86158800
| 35>  H     -1.04339500     -2.15443900     -2.37147600
| 36>  H     -2.69834900     -2.32088400     -1.73835000
| 37>  H     -2.15974600     -0.80203900     -2.50476200
| 38> *
| 39>
| 40>
| 41>                          ****END OF INPUT****

CARTESIAN COORDINATES (ANGSTROEM)
---------------------------------
  O     -0.306932   -0.246935   -0.714069
  C     -1.308690   -1.150441   -0.515696
  C     -2.630319   -0.355704    0.311461
  C     -2.394591    0.991423   -0.115579
  C     -2.839681    1.481771   -1.435855
  Fe     1.376473    0.107891   -0.036314
  Cl     1.769761    2.160775   -0.769401
  C     -1.626244    1.936362    0.710763
  Cl     2.761026   -1.459999   -0.711555
  Cl     1.145097    0.105117    2.196917
  H     -3.508301   -0.784412   -0.175828
  H     -2.371621    2.475417    1.323717
  H     -0.939597    1.445623    1.402225
  H     -1.093840    2.674290    0.105071
  H     -3.160623    2.527568   -1.369102
  H     -1.936903    1.483879   -2.068944
  H     -3.612216    0.870338   -1.902128
  C     -2.634782   -0.603346    1.820970
  H     -3.403157    0.011889    2.302338
  H     -2.874246   -1.648612    2.024783
  H     -1.672319   -0.380677    2.285527
  C     -0.887601   -2.338226    0.346381
  H     -1.703212   -3.050787    0.499713
  H     -0.082355   -2.842019   -0.201077
  H     -0.483229   -2.023373    1.308521
  C     -1.858048   -1.630444   -1.861588
  H     -1.043395   -2.154439   -2.371476
  H     -2.698349   -2.320884   -1.738350
  H     -2.159746   -0.802039   -2.504762

ORBITAL ENERGIES
----------------
                 SPIN UP ORBITALS
  NO   OCC          E(Eh)            E(eV)
   0   1.0000    -261.542539     -7116.9343
   1   1.0000    -104.773431     -2851.0300
   2   1.0000    -104.769581     -2850.9252
   3   1.0000    -104.766463     -2850.8404
   4   1.0000     -32.210442      -876.4907
   5   1.0000     -27.686401      -753.3853
   6   1.0000     -27.686129      -753.3779
   7   1.0000     -27.685886      -753.3713
   8   1.0000     -20.536874      -558.8367
   9   1.0000     -11.402824      -310.2866
  10   1.0000     -11.353252      -308.9377
  11   1.0000     -11.296411      -307.3910
  12   1.0000     -11.289164      -307.1938
  13   1.0000     -11.278761      -306.9107
  14   1.0000     -11.256802      -306.3131
  15   1.0000     -11.242914      -305.9353
  16   1.0000     -11.233529      -305.6799
  17   1.0000     -10.499988      -285.7192
  18   1.0000     -10.496108      -285.6136
  19   1.0000     -10.493019      -285.5296
  20   1.0000      -7.966901      -216.7904
  21   1.0000      -7.965980      -216.7653
  22   1.0000      -7.965943      -216.7643
  23   1.0000      -7.962941      -216.6826
  24   1.0000      -7.962201      -216.6625
  25   1.0000      -7.962099      -216.6597
  26   1.0000      -7.959824      -216.5978
  27   1.0000      -7.959135      -216.5791
  28   1.0000      -7.959048      -216.5767
  29   1.0000      -4.565913      -124.2448
  30   1.0000      -3.178426       -86.4894
  31   1.0000      -3.178013       -86.4781
  32   1.0000      -3.177633       -86.4678
  33   1.0000      -1.365709       -37.1628
  34   1.0000      -1.197112       -32.5751
  35   1.0000      -1.088349       -29.6155
  36   1.0000      -1.044484       -28.4219
  37   1.0000      -1.042108       -28.3572
  38   1.0000      -1.036640       -28.2084
  39   1.0000      -1.033380       -28.1197
  40   1.0000      -1.017933       -27.6994
  41   1.0000      -0.968667       -26.3588
  42   1.0000      -0.934389       -25.4260
  43   1.0000      -0.906497       -24.6670
  44   1.0000      -0.895568       -24.3696
  45   1.0000      -0.895406       -24.3652
  46   1.0000      -0.887792       -24.1581
  47   1.0000      -0.886961       -24.1354
  48   1.0000      -0.796454       -21.6726
  49   1.0000      -0.764262       -20.7966
  50   1.0000      -0.711665       -19.3654
  51   1.0000      -0.692359       -18.8400
  52   1.0000      -0.678334       -18.4584
  53   1.0000      -0.645263       -17.5585
  54   1.0000      -0.639701       -17.4072
  55   1.0000      -0.628420       -17.1002
  56   1.0000      -0.607573       -16.5329
  57   1.0000      -0.598706       -16.2916
  58   1.0000      -0.593550       -16.1513
  59   1.0000      -0.585586       -15.9346
  60   1.0000      -0.575676       -15.6649
  61   1.0000      -0.557258       -15.1637
  62   1.0000      -0.556785       -15.1509
  63   1.0000      -0.539737       -14.6870
  64   1.0000      -0.530686       -14.4407
  65   1.0000      -0.525761       -14.3067
  66   1.0000      -0.504319       -13.7232
  67   1.0000      -0.465845       -12.6763
  68   1.0000      -0.458936       -12.4883
  69   1.0000      -0.444324       -12.0907
  70   1.0000      -0.426256       -11.5990
  71   1.0000      -0.420835       -11.4515
  72   1.0000      -0.419088       -11.4040
  73   1.0000      -0.410806       -11.1786
  74   1.0000      -0.409658       -11.1474
  75   1.0000      -0.407256       -11.0820
  76   1.0000      -0.406442       -11.0599
  77   0.0000       0.002583         0.0703
  78   0.0000       0.004939         0.1344
  79   0.0000       0.018668         0.5080
  80   0.0000       0.019238         0.5235
  81   0.0000       0.030071         0.8183

                 SPIN DOWN ORBITALS
  NO   OCC          E(Eh)            E(eV)
   0   1.0000    -261.538998     -7116.8380
   1   1.0000    -104.772158     -2850.9954
   2   1.0000    -104.768276     -2850.8897
   3   1.0000    -104.765046     -2850.8018
   4   1.0000     -32.048377      -872.0807
   5   1.0000     -27.526526      -749.0348
   6   1.0000     -27.526318      -749.0292
   7   1.0000     -27.525708      -749.0126
   8   1.0000     -20.530740      -558.6698
   9   1.0000     -11.402830      -310.2868
  10   1.0000     -11.353108      -308.9338
  11   1.0000     -11.296408      -307.3909
  12   1.0000     -11.289004      -307.1894
  13   1.0000     -11.278790      -306.9115
  14   1.0000     -11.256815      -306.3135
  15   1.0000     -11.242803      -305.9322
  16   1.0000     -11.233488      -305.6787
  17   1.0000     -10.498611      -285.6817
  18   1.0000     -10.494707      -285.5755
  19   1.0000     -10.491503      -285.4883
  20   1.0000      -7.964427      -216.7231
  21   1.0000      -7.964071      -216.7134
  22   1.0000      -7.963991      -216.7112
  23   1.0000      -7.960670      -216.6208
  24   1.0000      -7.960071      -216.6046
  25   1.0000      -7.959977      -216.6020
  26   1.0000      -7.957488      -216.5343
  27   1.0000      -7.956744      -216.5140
  28   1.0000      -7.956670      -216.5120
  29   1.0000      -4.123675      -112.2109
  30   1.0000      -2.645652       -71.9919
  31   1.0000      -2.645431       -71.9858
  32   1.0000      -2.644616       -71.9637
  33   1.0000      -1.349777       -36.7293
  34   1.0000      -1.196093       -32.5473
  35   1.0000      -1.085810       -29.5464
  36   1.0000      -1.042476       -28.3672
  37   1.0000      -1.028880       -27.9973
  38   1.0000      -1.018315       -27.7098
  39   1.0000      -1.016817       -27.6690
  40   1.0000      -1.013268       -27.5724
  41   1.0000      -0.967840       -26.3363
  42   1.0000      -0.933384       -25.3987
  43   1.0000      -0.801093       -21.7989
  44   1.0000      -0.771775       -21.0011
  45   1.0000      -0.712330       -19.3835
  46   1.0000      -0.691683       -18.8216
  47   1.0000      -0.678920       -18.4744
  48   1.0000      -0.647103       -17.6086
  49   1.0000      -0.639619       -17.4049
  50   1.0000      -0.626785       -17.0557
  51   1.0000      -0.607583       -16.5332
  52   1.0000      -0.598800       -16.2942
  53   1.0000      -0.592326       -16.1180
  54   1.0000      -0.585853       -15.9419
  55   1.0000      -0.574330       -15.6283
  56   1.0000      -0.556809       -15.1516
  57   1.0000      -0.555721       -15.1219
  58   1.0000      -0.538908       -14.6644
  59   1.0000      -0.525233       -14.2923
  60   1.0000      -0.524542       -14.2735
  61   1.0000      -0.497569       -13.5395
  62   1.0000      -0.465866       -12.6769
  63   1.0000      -0.460918       -12.5422
  64   1.0000      -0.450745       -12.2654
  65   1.0000      -0.433664       -11.8006
  66   1.0000      -0.431991       -11.7551
  67   1.0000      -0.427868       -11.6429
  68   1.0000      -0.426235       -11.5984
  69   1.0000      -0.407087       -11.0774
  70   1.0000      -0.396486       -10.7889
  71   1.0000      -0.394405       -10.7323
  72   0.0000       0.002507         0.0682
  73   0.0000       0.004902         0.1334
  74   0.0000       0.018664         0.5079
  75   0.0000       0.019224         0.5231
  76   0.0000       0.030097         0.8190

E(0)                                       ...  -3028.428217836
E(0)                                       ...  -3028.428217836
E(CORR)(strong-pairs)                      ...     -2.870194844
E(CORR)(weak-pairs)                        ...     -0.035404013
E(CORR)(corrected)                         ...     -2.905598857
E(TOT)                                     ...  -3031.333816693
E(CCSD(T))                                 ...  -3031.451797191
FINAL SINGLE POINT ENERGY     -3031.451797190860

DIPOLE MOMENT
-------------
                                X             Y             Z
Electronic contribution:     39.23036       6.18024       1.53786
Nuclear contribution   :    -44.45204      -5.86586      -1.90431
                        -----------------------------------------
Total Dipole Moment    :     -5.22168       0.31439      -0.36645
                        -----------------------------------------
Magnitude (a.u.)       :      5.24396
Magnitude (Debye)      :     13.32908

Rotational constants in cm-1:     0.018977     0.011775     0.010833
Rotational constants in MHz :   568.926277   353.019844   324.761635

                             ****ORCA TERMINATED NORMALLY****
TOTAL RUN TIME: 0 days 21 hours 30 minutes 17 seconds 638 msec
