                         Program Version 4.1.2  - RELEASE  -
|  1> ! aug-cc-pVTZ aug-cc-pVTZ/C DLPNO-CCSD(T1) TightSCF NormalPNO UNO MiniPrint AutoAux
|  2> %pal nproc 10 end
|  3> %maxcore 20000
|  4> %mdci
|  5>      density none
|  6> end
|  7>
|  8> * xyz 0 6
|  9>  O     -0.30962200     -0.20625300     -0.53313600
| 10>  C     -1.13656100     -1.16593000     -0.32626700
| 11>  C     -2.71275400     -0.27237600      0.83118000
| 12>  C     -2.96212400      0.72916000     -0.07295400
| 13>  C     -3.97246900      0.57775300     -1.16649200
| 14> Fe      1.51566200      0.17953300     -0.08273700
| 15> Cl      1.84947000      2.12863800     -1.01773400
| 16>  C     -2.19398500      2.00389100     -0.04769200
| 17> Cl      2.58654500     -1.52459900     -0.95743100
| 18> Cl      1.70609300      0.24342400      2.10982100
| 19>  H     -3.37483000     -1.13643600      0.79044100
| 20>  H     -2.67200300      2.78641400     -0.64220200
| 21>  H     -2.01450600      2.37128900      0.96615400
| 22>  H     -1.20275500      1.80282800     -0.48862100
| 23>  H     -4.78403900      1.29766500     -0.99140600
| 24>  H     -3.54549300      0.83302400     -2.14467400
| 25>  H     -4.40953800     -0.42208000     -1.20951100
| 26>  C     -2.05273800      0.00655600      2.16482900
| 27>  H     -2.64570200      0.73794200      2.72729200
| 28>  H     -1.99026400     -0.89765000      2.77282300
| 29>  H     -1.04319700      0.41131300      2.05948600
| 30>  C     -0.76028300     -2.21849100      0.69631000
| 31>  H     -1.60414300     -2.85126100      0.97879600
| 32>  H     -0.00674600     -2.84607200      0.20036400
| 33>  H     -0.29154900     -1.78620300      1.57918700
| 34>  C     -1.84412300     -1.69347900     -1.55474000
| 35>  H     -1.13116100     -2.36706000     -2.04802900
| 36>  H     -2.74117000     -2.26742100     -1.31217400
| 37>  H     -2.07874300     -0.89351600     -2.25586900
| 38> *
| 39>
| 40>
| 41>                          ****END OF INPUT****

CARTESIAN COORDINATES (ANGSTROEM)
---------------------------------
  O     -0.309622   -0.206253   -0.533136
  C     -1.136561   -1.165930   -0.326267
  C     -2.712754   -0.272376    0.831180
  C     -2.962124    0.729160   -0.072954
  C     -3.972469    0.577753   -1.166492
  Fe     1.515662    0.179533   -0.082737
  Cl     1.849470    2.128638   -1.017734
  C     -2.193985    2.003891   -0.047692
  Cl     2.586545   -1.524599   -0.957431
  Cl     1.706093    0.243424    2.109821
  H     -3.374830   -1.136436    0.790441
  H     -2.672003    2.786414   -0.642202
  H     -2.014506    2.371289    0.966154
  H     -1.202755    1.802828   -0.488621
  H     -4.784039    1.297665   -0.991406
  H     -3.545493    0.833024   -2.144674
  H     -4.409538   -0.422080   -1.209511
  C     -2.052738    0.006556    2.164829
  H     -2.645702    0.737942    2.727292
  H     -1.990264   -0.897650    2.772823
  H     -1.043197    0.411313    2.059486
  C     -0.760283   -2.218491    0.696310
  H     -1.604143   -2.851261    0.978796
  H     -0.006746   -2.846072    0.200364
  H     -0.291549   -1.786203    1.579187
  C     -1.844123   -1.693479   -1.554740
  H     -1.131161   -2.367060   -2.048029
  H     -2.741170   -2.267421   -1.312174
  H     -2.078743   -0.893516   -2.255869

ORBITAL ENERGIES
----------------
                 SPIN UP ORBITALS
  NO   OCC          E(Eh)            E(eV)
   0   1.0000    -261.561433     -7117.4484
   1   1.0000    -104.783028     -2851.2911
   2   1.0000    -104.780339     -2851.2180
   3   1.0000    -104.779154     -2851.1857
   4   1.0000     -32.229254      -877.0026
   5   1.0000     -27.705529      -753.9058
   6   1.0000     -27.704710      -753.8835
   7   1.0000     -27.704556      -753.8793
   8   1.0000     -20.586459      -560.1860
   9   1.0000     -11.406532      -310.3875
  10   1.0000     -11.316938      -307.9495
  11   1.0000     -11.269584      -306.6610
  12   1.0000     -11.266572      -306.5790
  13   1.0000     -11.265382      -306.5466
  14   1.0000     -11.261783      -306.4487
  15   1.0000     -11.249434      -306.1127
  16   1.0000     -11.243696      -305.9565
  17   1.0000     -10.509680      -285.9829
  18   1.0000     -10.506979      -285.9094
  19   1.0000     -10.505757      -285.8762
  20   1.0000      -7.976528      -217.0524
  21   1.0000      -7.975730      -217.0306
  22   1.0000      -7.975715      -217.0303
  23   1.0000      -7.973845      -216.9793
  24   1.0000      -7.973080      -216.9585
  25   1.0000      -7.973001      -216.9564
  26   1.0000      -7.972569      -216.9446
  27   1.0000      -7.971884      -216.9260
  28   1.0000      -7.971799      -216.9237
  29   1.0000      -4.584441      -124.7490
  30   1.0000      -3.197456       -87.0072
  31   1.0000      -3.196084       -86.9699
  32   1.0000      -3.195824       -86.9628
  33   1.0000      -1.429835       -38.9078
  34   1.0000      -1.158057       -31.5123
  35   1.0000      -1.087875       -29.6026
  36   1.0000      -1.055110       -28.7110
  37   1.0000      -1.049770       -28.5657
  38   1.0000      -1.047173       -28.4950
  39   1.0000      -1.035372       -28.1739
  40   1.0000      -0.995462       -27.0879
  41   1.0000      -0.984824       -26.7984
  42   1.0000      -0.930585       -25.3225
  43   1.0000      -0.914060       -24.8728
  44   1.0000      -0.913657       -24.8619
  45   1.0000      -0.913247       -24.8507
  46   1.0000      -0.903557       -24.5870
  47   1.0000      -0.903155       -24.5761
  48   1.0000      -0.798646       -21.7323
  49   1.0000      -0.754161       -20.5218
  50   1.0000      -0.693519       -18.8716
  51   1.0000      -0.684245       -18.6192
  52   1.0000      -0.682078       -18.5603
  53   1.0000      -0.674109       -18.3434
  54   1.0000      -0.643336       -17.5061
  55   1.0000      -0.623478       -16.9657
  56   1.0000      -0.603833       -16.4311
  57   1.0000      -0.596749       -16.2384
  58   1.0000      -0.581548       -15.8247
  59   1.0000      -0.576683       -15.6923
  60   1.0000      -0.571680       -15.5562
  61   1.0000      -0.562344       -15.3022
  62   1.0000      -0.557951       -15.1826
  63   1.0000      -0.541479       -14.7344
  64   1.0000      -0.537376       -14.6228
  65   1.0000      -0.521557       -14.1923
  66   1.0000      -0.517080       -14.0705
  67   1.0000      -0.487057       -13.2535
  68   1.0000      -0.468448       -12.7471
  69   1.0000      -0.461847       -12.5675
  70   1.0000      -0.435939       -11.8625
  71   1.0000      -0.431332       -11.7371
  72   1.0000      -0.428876       -11.6703
  73   1.0000      -0.420627       -11.4459
  74   1.0000      -0.419081       -11.4038
  75   1.0000      -0.418210       -11.3801
  76   1.0000      -0.377239       -10.2652
  77   0.0000       0.009999         0.2721
  78   0.0000       0.020944         0.5699
  79   0.0000       0.022172         0.6033
  80   0.0000       0.028055         0.7634
  81   0.0000       0.035941         0.9780

                 SPIN DOWN ORBITALS
  NO   OCC          E(Eh)            E(eV)
   0   1.0000    -261.557868     -7117.3514
   1   1.0000    -104.781572     -2851.2515
   2   1.0000    -104.778848     -2851.1774
   3   1.0000    -104.777670     -2851.1454
   4   1.0000     -32.067203      -872.5930
   5   1.0000     -27.545153      -749.5417
   6   1.0000     -27.545087      -749.5399
   7   1.0000     -27.544828      -749.5329
   8   1.0000     -20.582398      -560.0755
   9   1.0000     -11.406428      -310.3847
  10   1.0000     -11.316388      -307.9346
  11   1.0000     -11.269656      -306.6629
  12   1.0000     -11.266469      -306.5762
  13   1.0000     -11.265656      -306.5541
  14   1.0000     -11.261784      -306.4487
  15   1.0000     -11.249508      -306.1147
  16   1.0000     -11.243677      -305.9560
  17   1.0000     -10.508121      -285.9405
  18   1.0000     -10.505384      -285.8660
  19   1.0000     -10.504175      -285.8331
  20   1.0000      -7.974019      -216.9841
  21   1.0000      -7.973361      -216.9662
  22   1.0000      -7.973299      -216.9645
  23   1.0000      -7.971289      -216.9098
  24   1.0000      -7.970623      -216.8917
  25   1.0000      -7.970528      -216.8891
  26   1.0000      -7.970147      -216.8787
  27   1.0000      -7.969369      -216.8576
  28   1.0000      -7.969273      -216.8549
  29   1.0000      -4.142169      -112.7141
  30   1.0000      -2.663817       -72.4861
  31   1.0000      -2.663770       -72.4849
  32   1.0000      -2.663217       -72.4698
  33   1.0000      -1.419482       -38.6261
  34   1.0000      -1.156951       -31.4822
  35   1.0000      -1.085257       -29.5314
  36   1.0000      -1.040427       -28.3115
  37   1.0000      -1.035266       -28.1710
  38   1.0000      -1.027632       -27.9633
  39   1.0000      -1.025591       -27.9078
  40   1.0000      -0.994905       -27.0727
  41   1.0000      -0.984679       -26.7945
  42   1.0000      -0.914232       -24.8775
  43   1.0000      -0.813275       -22.1303
  44   1.0000      -0.754249       -20.5242
  45   1.0000      -0.696410       -18.9503
  46   1.0000      -0.684036       -18.6136
  47   1.0000      -0.681058       -18.5325
  48   1.0000      -0.673746       -18.3336
  49   1.0000      -0.643258       -17.5039
  50   1.0000      -0.622709       -16.9448
  51   1.0000      -0.603428       -16.4201
  52   1.0000      -0.596483       -16.2311
  53   1.0000      -0.581395       -15.8206
  54   1.0000      -0.576618       -15.6906
  55   1.0000      -0.570758       -15.5311
  56   1.0000      -0.562384       -15.3033
  57   1.0000      -0.557857       -15.1801
  58   1.0000      -0.540725       -14.7139
  59   1.0000      -0.534982       -14.5576
  60   1.0000      -0.517028       -14.0690
  61   1.0000      -0.511725       -13.9247
  62   1.0000      -0.485817       -13.2198
  63   1.0000      -0.473408       -12.8821
  64   1.0000      -0.471715       -12.8360
  65   1.0000      -0.444116       -12.0850
  66   1.0000      -0.440657       -11.9909
  67   1.0000      -0.438562       -11.9339
  68   1.0000      -0.424417       -11.5490
  69   1.0000      -0.418754       -11.3949
  70   1.0000      -0.403958       -10.9922
  71   1.0000      -0.375563       -10.2196
  72   0.0000       0.009996         0.2720
  73   0.0000       0.020932         0.5696
  74   0.0000       0.022179         0.6035
  75   0.0000       0.027883         0.7587
  76   0.0000       0.035164         0.9569

E(0)                                       ...  -3028.437677576
E(0)                                       ...  -3028.437677576
E(CORR)(strong-pairs)                      ...     -2.873917567
E(CORR)(weak-pairs)                        ...     -0.035538939
E(CORR)(corrected)                         ...     -2.909456506
E(TOT)                                     ...  -3031.347134082
E(CCSD(T))                                 ...  -3031.467289831
FINAL SINGLE POINT ENERGY     -3031.467289830704

DIPOLE MOMENT
-------------
                                X             Y             Z
Electronic contribution:     43.87147       5.91176      -1.23783
Nuclear contribution   :    -48.29876      -6.86977       1.05753
                        -----------------------------------------
Total Dipole Moment    :     -4.42728      -0.95801      -0.18031
                        -----------------------------------------
Magnitude (a.u.)       :      4.53333
Magnitude (Debye)      :     11.52282

Rotational constants in cm-1:     0.019541     0.010290     0.009824
Rotational constants in MHz :   585.812545   308.498616   294.513216

                             ****ORCA TERMINATED NORMALLY****
TOTAL RUN TIME: 0 days 18 hours 51 minutes 23 seconds 484 msec
