                         Program Version 4.1.2  - RELEASE  -
|  1> ! aug-cc-pVTZ aug-cc-pVTZ/C DLPNO-CCSD(T1) TightSCF NormalPNO UNO MiniPrint AutoAux
|  2> %pal nproc 10 end
|  3> %maxcore 20000
|  4> %mdci
|  5>      density none
|  6> end
|  7>
|  8> * xyz 0 6
|  9>  O     -0.31542800     -0.23522700     -0.70896400
| 10>  C     -1.31906300     -1.14901800     -0.51988500
| 11>  C     -2.64653100     -0.33468600      0.27835700
| 12>  C     -2.34473800      1.00967300     -0.13050200
| 13>  C     -2.73138500      1.52543200     -1.45989300
| 14> Fe      1.36969000      0.09953800     -0.02765700
| 15> Cl      1.76805600      2.15664400     -0.75133400
| 16>  C     -1.59723400      1.93203000      0.73832400
| 17> Cl      2.74803300     -1.46912500     -0.71382100
| 18> Cl      1.13558100      0.08178600      2.20558600
| 19>  H     -3.52505700     -0.72313800     -0.24087300
| 20>  H     -2.36343200      2.47877400      1.31825200
| 21>  H     -0.95245500      1.42420300      1.45699700
| 22>  H     -1.02413900      2.66448500      0.16402400
| 23>  H     -3.03937600      2.57482500     -1.38699800
| 24>  H     -1.80625400      1.52299600     -2.05856500
| 25>  H     -3.49641400      0.93381100     -1.96243000
| 26>  C     -2.70766100     -0.59763300      1.78279000
| 27>  H     -3.48039100      0.02590000      2.24639900
| 28>  H     -2.97204400     -1.64088500      1.96620700
| 29>  H     -1.75737500     -0.39807000      2.28186600
| 30>  C     -0.90374900     -2.32857700      0.35291200
| 31>  H     -1.71711600     -3.04632700      0.49387900
| 32>  H     -0.08504200     -2.82966400     -0.17715400
| 33>  H     -0.51949500     -2.00783500      1.32133500
| 34>  C     -1.84588800     -1.63525700     -1.87110200
| 35>  H     -1.02208400     -2.15637800     -2.36942500
| 36>  H     -2.68444500     -2.32939100     -1.75658900
| 37>  H     -2.14427800     -0.80943600     -2.51943100
| 38> *
| 39>
| 40>
| 41>                          ****END OF INPUT****

CARTESIAN COORDINATES (ANGSTROEM)
---------------------------------
  O     -0.315428   -0.235227   -0.708964
  C     -1.319063   -1.149018   -0.519885
  C     -2.646531   -0.334686    0.278357
  C     -2.344738    1.009673   -0.130502
  C     -2.731385    1.525432   -1.459893
  Fe     1.369690    0.099538   -0.027657
  Cl     1.768056    2.156644   -0.751334
  C     -1.597234    1.932030    0.738324
  Cl     2.748033   -1.469125   -0.713821
  Cl     1.135581    0.081786    2.205586
  H     -3.525057   -0.723138   -0.240873
  H     -2.363432    2.478774    1.318252
  H     -0.952455    1.424203    1.456997
  H     -1.024139    2.664485    0.164024
  H     -3.039376    2.574825   -1.386998
  H     -1.806254    1.522996   -2.058565
  H     -3.496414    0.933811   -1.962430
  C     -2.707661   -0.597633    1.782790
  H     -3.480391    0.025900    2.246399
  H     -2.972044   -1.640885    1.966207
  H     -1.757375   -0.398070    2.281866
  C     -0.903749   -2.328577    0.352912
  H     -1.717116   -3.046327    0.493879
  H     -0.085042   -2.829664   -0.177154
  H     -0.519495   -2.007835    1.321335
  C     -1.845888   -1.635257   -1.871102
  H     -1.022084   -2.156378   -2.369425
  H     -2.684445   -2.329391   -1.756589
  H     -2.144278   -0.809436   -2.519431

ORBITAL ENERGIES
----------------
                 SPIN UP ORBITALS
  NO   OCC          E(Eh)            E(eV)
   0   1.0000    -261.542950     -7116.9455
   1   1.0000    -104.773565     -2851.0337
   2   1.0000    -104.770219     -2850.9426
   3   1.0000    -104.766989     -2850.8547
   4   1.0000     -32.210852      -876.5018
   5   1.0000     -27.686803      -753.3962
   6   1.0000     -27.686552      -753.3894
   7   1.0000     -27.686290      -753.3823
   8   1.0000     -20.537376      -558.8504
   9   1.0000     -11.403843      -310.3143
  10   1.0000     -11.352463      -308.9162
  11   1.0000     -11.294799      -307.3471
  12   1.0000     -11.289487      -307.2026
  13   1.0000     -11.278193      -306.8952
  14   1.0000     -11.257493      -306.3320
  15   1.0000     -11.242716      -305.9298
  16   1.0000     -11.233284      -305.6732
  17   1.0000     -10.500118      -285.7227
  18   1.0000     -10.496738      -285.6308
  19   1.0000     -10.493539      -285.5437
  20   1.0000      -7.967030      -216.7939
  21   1.0000      -7.966110      -216.7689
  22   1.0000      -7.966072      -216.7678
  23   1.0000      -7.963573      -216.6998
  24   1.0000      -7.962828      -216.6796
  25   1.0000      -7.962729      -216.6769
  26   1.0000      -7.960341      -216.6119
  27   1.0000      -7.959654      -216.5932
  28   1.0000      -7.959569      -216.5909
  29   1.0000      -4.566323      -124.2560
  30   1.0000      -3.178820       -86.5001
  31   1.0000      -3.178442       -86.4898
  32   1.0000      -3.178036       -86.4788
  33   1.0000      -1.364384       -37.1268
  34   1.0000      -1.195741       -32.5378
  35   1.0000      -1.088556       -29.6211
  36   1.0000      -1.044180       -28.4136
  37   1.0000      -1.042393       -28.3650
  38   1.0000      -1.037061       -28.2199
  39   1.0000      -1.033890       -28.1336
  40   1.0000      -1.017732       -27.6939
  41   1.0000      -0.968451       -26.3529
  42   1.0000      -0.934474       -25.4283
  43   1.0000      -0.906348       -24.6630
  44   1.0000      -0.895975       -24.3807
  45   1.0000      -0.895811       -24.3763
  46   1.0000      -0.888216       -24.1696
  47   1.0000      -0.887428       -24.1481
  48   1.0000      -0.795741       -21.6532
  49   1.0000      -0.763882       -20.7863
  50   1.0000      -0.710956       -19.3461
  51   1.0000      -0.692224       -18.8364
  52   1.0000      -0.678022       -18.4499
  53   1.0000      -0.644248       -17.5309
  54   1.0000      -0.639442       -17.4001
  55   1.0000      -0.627717       -17.0811
  56   1.0000      -0.606325       -16.4989
  57   1.0000      -0.598476       -16.2853
  58   1.0000      -0.593908       -16.1611
  59   1.0000      -0.585425       -15.9302
  60   1.0000      -0.576228       -15.6800
  61   1.0000      -0.556773       -15.1506
  62   1.0000      -0.556416       -15.1409
  63   1.0000      -0.539980       -14.6936
  64   1.0000      -0.529874       -14.4186
  65   1.0000      -0.525863       -14.3095
  66   1.0000      -0.504552       -13.7296
  67   1.0000      -0.466544       -12.6953
  68   1.0000      -0.459230       -12.4963
  69   1.0000      -0.445109       -12.1120
  70   1.0000      -0.426414       -11.6033
  71   1.0000      -0.421450       -11.4682
  72   1.0000      -0.419425       -11.4131
  73   1.0000      -0.411304       -11.1921
  74   1.0000      -0.410192       -11.1619
  75   1.0000      -0.407740       -11.0952
  76   1.0000      -0.406853       -11.0710
  77   0.0000       0.003712         0.1010
  78   0.0000       0.006402         0.1742
  79   0.0000       0.018886         0.5139
  80   0.0000       0.019424         0.5286
  81   0.0000       0.030120         0.8196

                 SPIN DOWN ORBITALS
  NO   OCC          E(Eh)            E(eV)
   0   1.0000    -261.539409     -7116.8491
   1   1.0000    -104.772293     -2850.9990
   2   1.0000    -104.768920     -2850.9073
   3   1.0000    -104.765573     -2850.8162
   4   1.0000     -32.048795      -872.0921
   5   1.0000     -27.526942      -749.0462
   6   1.0000     -27.526737      -749.0406
   7   1.0000     -27.526123      -749.0239
   8   1.0000     -20.531214      -558.6827
   9   1.0000     -11.403851      -310.3146
  10   1.0000     -11.352313      -308.9122
  11   1.0000     -11.294794      -307.3470
  12   1.0000     -11.289325      -307.1982
  13   1.0000     -11.278220      -306.8960
  14   1.0000     -11.257507      -306.3323
  15   1.0000     -11.242608      -305.9269
  16   1.0000     -11.233246      -305.6722
  17   1.0000     -10.498742      -285.6853
  18   1.0000     -10.495343      -285.5928
  19   1.0000     -10.492024      -285.5025
  20   1.0000      -7.964560      -216.7267
  21   1.0000      -7.964201      -216.7169
  22   1.0000      -7.964121      -216.7148
  23   1.0000      -7.961302      -216.6380
  24   1.0000      -7.960714      -216.6220
  25   1.0000      -7.960620      -216.6195
  26   1.0000      -7.958012      -216.5485
  27   1.0000      -7.957262      -216.5281
  28   1.0000      -7.957190      -216.5262
  29   1.0000      -4.124101      -112.2225
  30   1.0000      -2.646056       -72.0028
  31   1.0000      -2.645865       -71.9977
  32   1.0000      -2.645062       -71.9758
  33   1.0000      -1.348359       -36.6907
  34   1.0000      -1.194651       -32.5081
  35   1.0000      -1.085997       -29.5515
  36   1.0000      -1.042120       -28.3575
  37   1.0000      -1.029262       -28.0076
  38   1.0000      -1.018640       -27.7186
  39   1.0000      -1.016851       -27.6699
  40   1.0000      -1.013728       -27.5849
  41   1.0000      -0.967617       -26.3302
  42   1.0000      -0.933341       -25.3975
  43   1.0000      -0.800287       -21.7769
  44   1.0000      -0.771158       -20.9843
  45   1.0000      -0.711565       -19.3627
  46   1.0000      -0.691509       -18.8169
  47   1.0000      -0.678629       -18.4664
  48   1.0000      -0.646194       -17.5838
  49   1.0000      -0.639255       -17.3950
  50   1.0000      -0.626155       -17.0385
  51   1.0000      -0.606283       -16.4978
  52   1.0000      -0.598605       -16.2889
  53   1.0000      -0.592701       -16.1282
  54   1.0000      -0.585610       -15.9353
  55   1.0000      -0.574849       -15.6424
  56   1.0000      -0.556539       -15.1442
  57   1.0000      -0.555079       -15.1045
  58   1.0000      -0.539202       -14.6724
  59   1.0000      -0.525038       -14.2870
  60   1.0000      -0.523878       -14.2554
  61   1.0000      -0.497888       -13.5482
  62   1.0000      -0.466419       -12.6919
  63   1.0000      -0.461350       -12.5540
  64   1.0000      -0.451704       -12.2915
  65   1.0000      -0.433746       -11.8028
  66   1.0000      -0.432131       -11.7589
  67   1.0000      -0.428395       -11.6572
  68   1.0000      -0.426755       -11.6126
  69   1.0000      -0.407719       -11.0946
  70   1.0000      -0.396987       -10.8026
  71   1.0000      -0.394933       -10.7467
  72   0.0000       0.003661         0.0996
  73   0.0000       0.006304         0.1716
  74   0.0000       0.018883         0.5138
  75   0.0000       0.019411         0.5282
  76   0.0000       0.030148         0.8204

E(0)                                       ...  -3028.428453163
E(0)                                       ...  -3028.428453163
E(CORR)(strong-pairs)                      ...     -2.869971843
E(CORR)(weak-pairs)                        ...     -0.035630247
E(CORR)(corrected)                         ...     -2.905602089
E(TOT)                                     ...  -3031.334055253
E(CCSD(T))                                 ...  -3031.451946604
FINAL SINGLE POINT ENERGY     -3031.451946603752

DIPOLE MOMENT
-------------
                                X             Y             Z
Electronic contribution:     39.08844       5.93740       1.72039
Nuclear contribution   :    -44.24568      -5.58971      -2.10741
                        -----------------------------------------
Total Dipole Moment    :     -5.15725       0.34769      -0.38702
                        -----------------------------------------
Magnitude (a.u.)       :      5.18342
Magnitude (Debye)      :     13.17521

Rotational constants in cm-1:     0.018940     0.011860     0.010898
Rotational constants in MHz :   567.807730   355.548529   326.710979

                             ****ORCA TERMINATED NORMALLY****
TOTAL RUN TIME: 0 days 20 hours 40 minutes 41 seconds 225 msec
