                         Program Version 4.1.2  - RELEASE  -
|  1> ! aug-cc-pVTZ aug-cc-pVTZ/C DLPNO-CCSD(T1) TightSCF NormalPNO UNO MiniPrint AutoAux
|  2> %pal nproc 10 end
|  3> %maxcore 20000
|  4> %mdci
|  5>      density none
|  6> end
|  7>
|  8> * xyz 0 6
|  9>  O     -0.33616300     -0.29190600     -0.61836700
| 10>  C     -1.42449400     -1.19421400     -0.41848100
| 11>  C     -2.74545100     -0.15354900     -0.16929900
| 12>  C     -2.02369200      1.14938500     -0.24766100
| 13>  C     -1.90426800      1.86112300     -1.53381700
| 14> Fe      1.37259700      0.02763800      0.02100300
| 15> Cl      1.73175600      2.07320500     -0.78867000
| 16>  C     -1.57622000      1.84548200      0.97214800
| 17> Cl      2.69441100     -1.57350300     -0.68644800
| 18> Cl      1.25029900      0.11233600      2.24504600
| 19>  H     -3.38715400     -0.25559900     -1.04903100
| 20>  H     -2.46967900      2.33887700      1.39226900
| 21>  H     -1.20298300      1.15660700      1.73369500
| 22>  H     -0.82167200      2.60448500      0.75801200
| 23>  H     -2.56832600      2.74056900     -1.48401500
| 24>  H     -0.88166300      2.24099000     -1.64938000
| 25>  H     -2.18927400      1.24747400     -2.38856500
| 26>  C     -3.55580600     -0.40071800      1.10012600
| 27>  H     -4.36705200      0.33007000      1.19652400
| 28>  H     -4.01253200     -1.39312600      1.05496600
| 29>  H     -2.94604800     -0.35563900      2.00497300
| 30>  C     -1.17632500     -2.10539300      0.77102100
| 31>  H     -2.00893000     -2.79685900      0.93224400
| 32>  H     -0.27818100     -2.69666800      0.55715200
| 33>  H     -0.98466600     -1.54373600      1.68691600
| 34>  C     -1.64687800     -1.98043800     -1.70137200
| 35>  H     -0.75280100     -2.57982000     -1.90402600
| 36>  H     -2.51031000     -2.64974000     -1.61622900
| 37>  H     -1.79807300     -1.30592700     -2.54942800
| 38> *
| 39>
| 40>
| 41>                          ****END OF INPUT****

CARTESIAN COORDINATES (ANGSTROEM)
---------------------------------
  O     -0.336163   -0.291906   -0.618367
  C     -1.424494   -1.194214   -0.418481
  C     -2.745451   -0.153549   -0.169299
  C     -2.023692    1.149385   -0.247661
  C     -1.904268    1.861123   -1.533817
  Fe     1.372597    0.027638    0.021003
  Cl     1.731756    2.073205   -0.788670
  C     -1.576220    1.845482    0.972148
  Cl     2.694411   -1.573503   -0.686448
  Cl     1.250299    0.112336    2.245046
  H     -3.387154   -0.255599   -1.049031
  H     -2.469679    2.338877    1.392269
  H     -1.202983    1.156607    1.733695
  H     -0.821672    2.604485    0.758012
  H     -2.568326    2.740569   -1.484015
  H     -0.881663    2.240990   -1.649380
  H     -2.189274    1.247474   -2.388565
  C     -3.555806   -0.400718    1.100126
  H     -4.367052    0.330070    1.196524
  H     -4.012532   -1.393126    1.054966
  H     -2.946048   -0.355639    2.004973
  C     -1.176325   -2.105393    0.771021
  H     -2.008930   -2.796859    0.932244
  H     -0.278181   -2.696668    0.557152
  H     -0.984666   -1.543736    1.686916
  C     -1.646878   -1.980438   -1.701372
  H     -0.752801   -2.579820   -1.904026
  H     -2.510310   -2.649740   -1.616229
  H     -1.798073   -1.305927   -2.549428

ORBITAL ENERGIES
----------------
                 SPIN UP ORBITALS
  NO   OCC          E(Eh)            E(eV)
   0   1.0000    -261.543807     -7116.9688
   1   1.0000    -104.773863     -2851.0418
   2   1.0000    -104.772899     -2851.0155
   3   1.0000    -104.768333     -2850.8913
   4   1.0000     -32.211673      -876.5242
   5   1.0000     -27.687609      -753.4181
   6   1.0000     -27.687417      -753.4129
   7   1.0000     -27.687100      -753.4043
   8   1.0000     -20.542850      -558.9994
   9   1.0000     -11.412621      -310.5532
  10   1.0000     -11.341163      -308.6087
  11   1.0000     -11.294999      -307.3526
  12   1.0000     -11.284967      -307.0796
  13   1.0000     -11.282181      -307.0038
  14   1.0000     -11.266381      -306.5738
  15   1.0000     -11.237733      -305.7943
  16   1.0000     -11.233304      -305.6737
  17   1.0000     -10.500395      -285.7303
  18   1.0000     -10.499547      -285.7072
  19   1.0000     -10.494902      -285.5808
  20   1.0000      -7.967244      -216.7997
  21   1.0000      -7.966461      -216.7784
  22   1.0000      -7.966443      -216.7779
  23   1.0000      -7.966372      -216.7760
  24   1.0000      -7.965565      -216.7540
  25   1.0000      -7.965538      -216.7533
  26   1.0000      -7.961698      -216.6488
  27   1.0000      -7.961030      -216.6306
  28   1.0000      -7.960935      -216.6281
  29   1.0000      -4.567141      -124.2782
  30   1.0000      -3.179609       -86.5216
  31   1.0000      -3.179320       -86.5137
  32   1.0000      -3.178831       -86.5004
  33   1.0000      -1.349172       -36.7128
  34   1.0000      -1.184893       -32.2426
  35   1.0000      -1.091777       -29.7088
  36   1.0000      -1.044278       -28.4162
  37   1.0000      -1.039347       -28.2821
  38   1.0000      -1.038218       -28.2513
  39   1.0000      -1.035668       -28.1820
  40   1.0000      -1.019984       -27.7552
  41   1.0000      -0.965250       -26.2658
  42   1.0000      -0.933817       -25.4105
  43   1.0000      -0.902537       -24.5593
  44   1.0000      -0.896645       -24.3989
  45   1.0000      -0.896563       -24.3967
  46   1.0000      -0.888940       -24.1893
  47   1.0000      -0.888418       -24.1751
  48   1.0000      -0.798821       -21.7370
  49   1.0000      -0.759992       -20.6804
  50   1.0000      -0.704789       -19.1783
  51   1.0000      -0.689830       -18.7712
  52   1.0000      -0.674219       -18.3464
  53   1.0000      -0.636119       -17.3097
  54   1.0000      -0.634311       -17.2605
  55   1.0000      -0.625338       -17.0163
  56   1.0000      -0.603860       -16.4319
  57   1.0000      -0.599532       -16.3141
  58   1.0000      -0.595917       -16.2157
  59   1.0000      -0.583131       -15.8678
  60   1.0000      -0.577798       -15.7227
  61   1.0000      -0.557705       -15.1759
  62   1.0000      -0.548538       -14.9265
  63   1.0000      -0.538725       -14.6595
  64   1.0000      -0.527573       -14.3560
  65   1.0000      -0.521787       -14.1985
  66   1.0000      -0.502994       -13.6872
  67   1.0000      -0.470238       -12.7958
  68   1.0000      -0.463030       -12.5997
  69   1.0000      -0.446805       -12.1582
  70   1.0000      -0.432257       -11.7623
  71   1.0000      -0.424972       -11.5641
  72   1.0000      -0.420056       -11.4303
  73   1.0000      -0.414647       -11.2831
  74   1.0000      -0.411513       -11.1978
  75   1.0000      -0.410920       -11.1817
  76   1.0000      -0.408635       -11.1195
  77   0.0000       0.005052         0.1375
  78   0.0000       0.016278         0.4430
  79   0.0000       0.020783         0.5655
  80   0.0000       0.023020         0.6264
  81   0.0000       0.030271         0.8237

                 SPIN DOWN ORBITALS
  NO   OCC          E(Eh)            E(eV)
   0   1.0000    -261.540266     -7116.8725
   1   1.0000    -104.772602     -2851.0074
   2   1.0000    -104.771568     -2850.9793
   3   1.0000    -104.766896     -2850.8522
   4   1.0000     -32.049653      -872.1154
   5   1.0000     -27.527809      -749.0698
   6   1.0000     -27.527560      -749.0630
   7   1.0000     -27.527003      -749.0478
   8   1.0000     -20.536553      -558.8280
   9   1.0000     -11.412655      -310.5541
  10   1.0000     -11.340932      -308.6024
  11   1.0000     -11.294865      -307.3489
  12   1.0000     -11.284947      -307.0790
  13   1.0000     -11.282194      -307.0041
  14   1.0000     -11.266384      -306.5739
  15   1.0000     -11.237664      -305.7924
  16   1.0000     -11.233280      -305.6731
  17   1.0000     -10.499036      -285.6933
  18   1.0000     -10.498113      -285.6682
  19   1.0000     -10.493366      -285.5390
  20   1.0000      -7.964962      -216.7376
  21   1.0000      -7.964458      -216.7239
  22   1.0000      -7.964367      -216.7215
  23   1.0000      -7.963973      -216.7107
  24   1.0000      -7.963502      -216.6979
  25   1.0000      -7.963438      -216.6962
  26   1.0000      -7.959359      -216.5852
  27   1.0000      -7.958582      -216.5640
  28   1.0000      -7.958517      -216.5623
  29   1.0000      -4.125011      -112.2473
  30   1.0000      -2.646959       -72.0274
  31   1.0000      -2.646851       -72.0245
  32   1.0000      -2.645966       -72.0004
  33   1.0000      -1.332666       -36.2637
  34   1.0000      -1.183440       -32.2030
  35   1.0000      -1.089202       -29.6387
  36   1.0000      -1.036305       -28.1993
  37   1.0000      -1.030590       -28.0438
  38   1.0000      -1.022385       -27.8205
  39   1.0000      -1.017801       -27.6958
  40   1.0000      -1.015262       -27.6267
  41   1.0000      -0.964492       -26.2452
  42   1.0000      -0.931274       -25.3413
  43   1.0000      -0.802065       -21.8253
  44   1.0000      -0.765694       -20.8356
  45   1.0000      -0.705058       -19.1856
  46   1.0000      -0.689481       -18.7617
  47   1.0000      -0.675180       -18.3726
  48   1.0000      -0.638379       -17.3712
  49   1.0000      -0.634167       -17.2566
  50   1.0000      -0.623482       -16.9658
  51   1.0000      -0.604098       -16.4383
  52   1.0000      -0.598570       -16.2879
  53   1.0000      -0.595403       -16.2017
  54   1.0000      -0.582533       -15.8515
  55   1.0000      -0.576490       -15.6871
  56   1.0000      -0.557390       -15.1674
  57   1.0000      -0.545889       -14.8544
  58   1.0000      -0.538296       -14.6478
  59   1.0000      -0.525336       -14.2951
  60   1.0000      -0.516302       -14.0493
  61   1.0000      -0.498736       -13.5713
  62   1.0000      -0.468138       -12.7387
  63   1.0000      -0.463406       -12.6099
  64   1.0000      -0.454704       -12.3731
  65   1.0000      -0.438722       -11.9382
  66   1.0000      -0.435059       -11.8386
  67   1.0000      -0.430148       -11.7049
  68   1.0000      -0.429712       -11.6931
  69   1.0000      -0.409566       -11.1449
  70   1.0000      -0.400560       -10.8998
  71   1.0000      -0.397446       -10.8151
  72   0.0000       0.005010         0.1363
  73   0.0000       0.015859         0.4315
  74   0.0000       0.020761         0.5649
  75   0.0000       0.022727         0.6184
  76   0.0000       0.030304         0.8246

E(0)                                       ...  -3028.433711278
E(0)                                       ...  -3028.433711278
E(CORR)(strong-pairs)                      ...     -2.868746187
E(CORR)(weak-pairs)                        ...     -0.035655258
E(CORR)(corrected)                         ...     -2.904401445
E(TOT)                                     ...  -3031.338112723
E(CCSD(T))                                 ...  -3031.455714299
FINAL SINGLE POINT ENERGY     -3031.455714299195

DIPOLE MOMENT
-------------
                                X             Y             Z
Electronic contribution:     39.90589       4.39780       2.04005
Nuclear contribution   :    -44.85933      -3.76163      -2.42379
                        -----------------------------------------
Total Dipole Moment    :     -4.95343       0.63617      -0.38374
                        -----------------------------------------
Magnitude (a.u.)       :      5.00884
Magnitude (Debye)      :     12.73145

Rotational constants in cm-1:     0.019006     0.011933     0.010722
Rotational constants in MHz :   569.779381   357.738850   321.429653

                             ****ORCA TERMINATED NORMALLY****
TOTAL RUN TIME: 0 days 20 hours 12 minutes 26 seconds 168 msec
