                         Program Version 4.1.2  - RELEASE  -
|  1> ! aug-cc-pVTZ aug-cc-pVTZ/C DLPNO-CCSD(T1) TightSCF NormalPNO UNO MiniPrint AutoAux
|  2> %pal nproc 10 end
|  3> %maxcore 20000
|  4> %mdci
|  5>      density none
|  6> end
|  7>
|  8> * xyz 0 6
|  9>  O     -0.32972900     -0.14343800     -0.58473800
| 10>  C     -1.29294600     -1.05005000     -0.50183400
| 11>  C     -2.98025900     -0.08276500     -0.03564300
| 12>  C     -2.23781200      1.08186200     -0.20015000
| 13>  C     -2.11639100      1.75459600     -1.52115700
| 14> Fe      1.42438900      0.05440100      0.04062200
| 15> Cl      1.94571300      2.04763300     -0.75076100
| 16>  C     -1.58302600      1.77229100      0.94426800
| 17> Cl      2.52752500     -1.67166100     -0.76141900
| 18> Cl      1.33746500      0.02788700      2.25697600
| 19>  H     -3.59333100     -0.36406700     -0.88916100
| 20>  H     -2.33732600      2.43665600      1.39457400
| 21>  H     -1.24424900      1.08794700      1.72312700
| 22>  H     -0.74028600      2.38441200      0.61656600
| 23>  H     -2.58141700      2.74701300     -1.42922400
| 24>  H     -1.06084900      1.91685100     -1.76255500
| 25>  H     -2.61555000      1.21505000     -2.32771600
| 26>  C     -3.55132600     -0.50447500      1.30081800
| 27>  H     -4.44594000      0.09163600      1.52064500
| 28>  H     -3.85804900     -1.55326400      1.28407400
| 29>  H     -2.85227800     -0.36853700      2.12824800
| 30>  C     -1.14829600     -2.05071700      0.62156700
| 31>  H     -1.99816700     -2.73081900      0.69740900
| 32>  H     -0.25505200     -2.64025300      0.37138100
| 33>  H     -0.95348600     -1.56748900      1.57952200
| 34>  C     -1.66840300     -1.64875800     -1.84268500
| 35>  H     -0.79641200     -2.23140100     -2.16733600
| 36>  H     -2.53419400     -2.31253000     -1.77701500
| 37>  H     -1.84091100     -0.87564400     -2.59342300
| 38> *
| 39>
| 40>
| 41>                          ****END OF INPUT****

CARTESIAN COORDINATES (ANGSTROEM)
---------------------------------
  O     -0.329729   -0.143438   -0.584738
  C     -1.292946   -1.050050   -0.501834
  C     -2.980259   -0.082765   -0.035643
  C     -2.237812    1.081862   -0.200150
  C     -2.116391    1.754596   -1.521157
  Fe     1.424389    0.054401    0.040622
  Cl     1.945713    2.047633   -0.750761
  C     -1.583026    1.772291    0.944268
  Cl     2.527525   -1.671661   -0.761419
  Cl     1.337465    0.027887    2.256976
  H     -3.593331   -0.364067   -0.889161
  H     -2.337326    2.436656    1.394574
  H     -1.244249    1.087947    1.723127
  H     -0.740286    2.384412    0.616566
  H     -2.581417    2.747013   -1.429224
  H     -1.060849    1.916851   -1.762555
  H     -2.615550    1.215050   -2.327716
  C     -3.551326   -0.504475    1.300818
  H     -4.445940    0.091636    1.520645
  H     -3.858049   -1.553264    1.284074
  H     -2.852278   -0.368537    2.128248
  C     -1.148296   -2.050717    0.621567
  H     -1.998167   -2.730819    0.697409
  H     -0.255052   -2.640253    0.371381
  H     -0.953486   -1.567489    1.579522
  C     -1.668403   -1.648758   -1.842685
  H     -0.796412   -2.231401   -2.167336
  H     -2.534194   -2.312530   -1.777015
  H     -1.840911   -0.875644   -2.593423

ORBITAL ENERGIES
----------------
                 SPIN UP ORBITALS
  NO   OCC          E(Eh)            E(eV)
   0   1.0000    -261.552741     -7117.2119
   1   1.0000    -104.777696     -2851.1461
   2   1.0000    -104.776743     -2851.1201
   3   1.0000    -104.775196     -2851.0780
   4   1.0000     -32.220629      -876.7679
   5   1.0000     -27.696608      -753.6630
   6   1.0000     -27.696301      -753.6547
   7   1.0000     -27.696064      -753.6482
   8   1.0000     -20.556515      -559.3712
   9   1.0000     -11.391347      -309.9743
  10   1.0000     -11.358644      -309.0844
  11   1.0000     -11.276875      -306.8594
  12   1.0000     -11.268541      -306.6326
  13   1.0000     -11.262610      -306.4712
  14   1.0000     -11.260573      -306.4158
  15   1.0000     -11.257126      -306.3220
  16   1.0000     -11.251687      -306.1740
  17   1.0000     -10.504303      -285.8366
  18   1.0000     -10.503261      -285.8083
  19   1.0000     -10.501746      -285.7670
  20   1.0000      -7.971189      -216.9071
  21   1.0000      -7.970348      -216.8842
  22   1.0000      -7.970303      -216.8830
  23   1.0000      -7.970080      -216.8769
  24   1.0000      -7.969359      -216.8573
  25   1.0000      -7.969269      -216.8548
  26   1.0000      -7.968583      -216.8362
  27   1.0000      -7.967853      -216.8163
  28   1.0000      -7.967763      -216.8139
  29   1.0000      -4.576065      -124.5211
  30   1.0000      -3.188793       -86.7715
  31   1.0000      -3.188080       -86.7521
  32   1.0000      -3.187576       -86.7383
  33   1.0000      -1.401968       -38.1495
  34   1.0000      -1.173654       -31.9368
  35   1.0000      -1.086569       -29.5671
  36   1.0000      -1.049346       -28.5542
  37   1.0000      -1.043930       -28.4068
  38   1.0000      -1.041927       -28.3523
  39   1.0000      -1.040930       -28.3252
  40   1.0000      -0.999904       -27.2088
  41   1.0000      -0.984994       -26.8031
  42   1.0000      -0.932765       -25.3818
  43   1.0000      -0.917455       -24.9652
  44   1.0000      -0.905671       -24.6446
  45   1.0000      -0.905573       -24.6419
  46   1.0000      -0.896557       -24.3966
  47   1.0000      -0.896365       -24.3913
  48   1.0000      -0.786871       -21.4119
  49   1.0000      -0.762871       -20.7588
  50   1.0000      -0.696032       -18.9400
  51   1.0000      -0.694043       -18.8859
  52   1.0000      -0.677441       -18.4341
  53   1.0000      -0.656736       -17.8707
  54   1.0000      -0.645674       -17.5697
  55   1.0000      -0.624166       -16.9844
  56   1.0000      -0.601177       -16.3589
  57   1.0000      -0.593526       -16.1507
  58   1.0000      -0.588461       -16.0128
  59   1.0000      -0.581982       -15.8365
  60   1.0000      -0.574137       -15.6231
  61   1.0000      -0.564848       -15.3703
  62   1.0000      -0.556019       -15.1301
  63   1.0000      -0.550003       -14.9663
  64   1.0000      -0.539262       -14.6741
  65   1.0000      -0.528547       -14.3825
  66   1.0000      -0.512312       -13.9407
  67   1.0000      -0.479266       -13.0415
  68   1.0000      -0.464260       -12.6332
  69   1.0000      -0.453457       -12.3392
  70   1.0000      -0.430937       -11.7264
  71   1.0000      -0.427104       -11.6221
  72   1.0000      -0.424987       -11.5645
  73   1.0000      -0.417345       -11.3565
  74   1.0000      -0.415647       -11.3103
  75   1.0000      -0.414363       -11.2754
  76   1.0000      -0.385896       -10.5008
  77   0.0000       0.009232         0.2512
  78   0.0000       0.020037         0.5452
  79   0.0000       0.021953         0.5974
  80   0.0000       0.030125         0.8198
  81   0.0000       0.036054         0.9811

                 SPIN DOWN ORBITALS
  NO   OCC          E(Eh)            E(eV)
   0   1.0000    -261.549195     -7117.1154
   1   1.0000    -104.776316     -2851.1085
   2   1.0000    -104.775386     -2851.0832
   3   1.0000    -104.773753     -2851.0388
   4   1.0000     -32.058576      -872.3582
   5   1.0000     -27.536616      -749.3094
   6   1.0000     -27.536479      -749.3057
   7   1.0000     -27.536048      -749.2939
   8   1.0000     -20.551240      -559.2277
   9   1.0000     -11.391292      -309.9728
  10   1.0000     -11.358602      -309.0833
  11   1.0000     -11.276581      -306.8514
  12   1.0000     -11.268537      -306.6325
  13   1.0000     -11.262636      -306.4719
  14   1.0000     -11.260604      -306.4166
  15   1.0000     -11.257024      -306.3192
  16   1.0000     -11.251650      -306.1730
  17   1.0000     -10.502821      -285.7963
  18   1.0000     -10.501808      -285.7687
  19   1.0000     -10.500202      -285.7250
  20   1.0000      -7.968701      -216.8394
  21   1.0000      -7.968159      -216.8246
  22   1.0000      -7.968085      -216.8226
  23   1.0000      -7.967775      -216.8142
  24   1.0000      -7.967113      -216.7962
  25   1.0000      -7.967017      -216.7936
  26   1.0000      -7.966138      -216.7696
  27   1.0000      -7.965455      -216.7510
  28   1.0000      -7.965371      -216.7488
  29   1.0000      -4.133786      -112.4860
  30   1.0000      -2.655536       -72.2608
  31   1.0000      -2.655463       -72.2588
  32   1.0000      -2.654896       -72.2434
  33   1.0000      -1.388472       -37.7822
  34   1.0000      -1.172518       -31.9058
  35   1.0000      -1.083850       -29.4931
  36   1.0000      -1.040054       -28.3013
  37   1.0000      -1.034901       -28.1611
  38   1.0000      -1.023582       -27.8531
  39   1.0000      -1.021640       -27.8002
  40   1.0000      -0.999497       -27.1977
  41   1.0000      -0.984476       -26.7890
  42   1.0000      -0.929693       -25.2982
  43   1.0000      -0.799988       -21.7688
  44   1.0000      -0.763824       -20.7847
  45   1.0000      -0.695879       -18.9358
  46   1.0000      -0.693884       -18.8815
  47   1.0000      -0.679497       -18.4901
  48   1.0000      -0.656165       -17.8552
  49   1.0000      -0.645251       -17.5582
  50   1.0000      -0.624163       -16.9843
  51   1.0000      -0.600251       -16.3337
  52   1.0000      -0.593314       -16.1449
  53   1.0000      -0.588399       -16.0111
  54   1.0000      -0.581649       -15.8275
  55   1.0000      -0.573949       -15.6179
  56   1.0000      -0.564850       -15.3703
  57   1.0000      -0.555368       -15.1123
  58   1.0000      -0.549486       -14.9523
  59   1.0000      -0.533963       -14.5299
  60   1.0000      -0.528044       -14.3688
  61   1.0000      -0.505315       -13.7503
  62   1.0000      -0.476390       -12.9632
  63   1.0000      -0.467960       -12.7338
  64   1.0000      -0.463909       -12.6236
  65   1.0000      -0.439000       -11.9458
  66   1.0000      -0.435799       -11.8587
  67   1.0000      -0.434445       -11.8219
  68   1.0000      -0.423069       -11.5123
  69   1.0000      -0.414160       -11.2699
  70   1.0000      -0.401398       -10.9226
  71   1.0000      -0.382737       -10.4148
  72   0.0000       0.009233         0.2512
  73   0.0000       0.019995         0.5441
  74   0.0000       0.021933         0.5968
  75   0.0000       0.030154         0.8205
  76   0.0000       0.035738         0.9725

E(0)                                       ...  -3028.423165250
E(0)                                       ...  -3028.423165250
E(CORR)(strong-pairs)                      ...     -2.872264025
E(CORR)(weak-pairs)                        ...     -0.035663258
E(CORR)(corrected)                         ...     -2.907927283
E(TOT)                                     ...  -3031.331092533
E(CCSD(T))                                 ...  -3031.450558348
FINAL SINGLE POINT ENERGY     -3031.450558348342

DIPOLE MOMENT
-------------
                                X             Y             Z
Electronic contribution:     41.18646       3.35017       2.27318
Nuclear contribution   :    -45.74409      -3.42306      -2.75673
                        -----------------------------------------
Total Dipole Moment    :     -4.55763      -0.07289      -0.48355
                        -----------------------------------------
Magnitude (a.u.)       :      4.58379
Magnitude (Debye)      :     11.65108

Rotational constants in cm-1:     0.019361     0.011431     0.010601
Rotational constants in MHz :   580.415844   342.683808   317.799888

                             ****ORCA TERMINATED NORMALLY****
TOTAL RUN TIME: 0 days 22 hours 56 minutes 34 seconds 332 msec
