                         Program Version 4.1.2  - RELEASE  -
|  1> ! aug-cc-pVTZ aug-cc-pVTZ/C DLPNO-CCSD(T1) TightSCF NormalPNO UNO MiniPrint AutoAux
|  2> %pal nproc 10 end
|  3> %maxcore 20000
|  4> %mdci
|  5>      density none
|  6> end
|  7>
|  8> * xyz 0 6
|  9>  O     -0.31705400     -0.14314300     -0.44820600
| 10>  C     -1.18662700     -1.09751100     -0.24152000
| 11>  C     -2.61507400     -0.30375200      0.82243000
| 12>  C     -3.01474500      0.69235200     -0.06494500
| 13>  C     -4.10388000      0.47108500     -1.05871300
| 14> Fe      1.51804000      0.17461700     -0.09387600
| 15> Cl      1.83937300      2.15766800     -0.97725400
| 16>  C     -2.28605200      1.97657000     -0.12189800
| 17> Cl      2.53664200     -1.51052000     -1.07169700
| 18> Cl      1.81034000      0.17097500      2.09450300
| 19>  H     -3.28247500     -1.16451500      0.86802500
| 20>  H     -2.74609000      2.70263300     -0.79491700
| 21>  H     -2.13359800      2.41960800      0.86703700
| 22>  H     -1.27145100      1.73013600     -0.49469600
| 23>  H     -4.93311200      1.14865500     -0.80762400
| 24>  H     -3.78272200      0.74894100     -2.07030600
| 25>  H     -4.48500800     -0.55160800     -1.05898300
| 26>  C     -1.95873700      0.08247600      2.13941100
| 27>  H     -2.58074900      0.81401900      2.66731200
| 28>  H     -1.85109400     -0.78683800      2.78957900
| 29>  H     -0.96775600      0.51858400      1.99595800
| 30>  C     -0.74976900     -2.20163200      0.71730200
| 31>  H     -1.57293100     -2.86533600      0.99303000
| 32>  H      0.00279900     -2.78586300      0.17271100
| 33>  H     -0.26878700     -1.80229300      1.60942600
| 34>  C     -1.81856300     -1.63424400     -1.51708100
| 35>  H     -1.05866400     -2.25695400     -2.00333400
| 36>  H     -2.69745900     -2.25508800     -1.32294600
| 37>  H     -2.07085600     -0.82912700     -2.20815600
| 38> *
| 39>
| 40>
| 41>                          ****END OF INPUT****

CARTESIAN COORDINATES (ANGSTROEM)
---------------------------------
  O     -0.317054   -0.143143   -0.448206
  C     -1.186627   -1.097511   -0.241520
  C     -2.615074   -0.303752    0.822430
  C     -3.014745    0.692352   -0.064945
  C     -4.103880    0.471085   -1.058713
  Fe     1.518040    0.174617   -0.093876
  Cl     1.839373    2.157668   -0.977254
  C     -2.286052    1.976570   -0.121898
  Cl     2.536642   -1.510520   -1.071697
  Cl     1.810340    0.170975    2.094503
  H     -3.282475   -1.164515    0.868025
  H     -2.746090    2.702633   -0.794917
  H     -2.133598    2.419608    0.867037
  H     -1.271451    1.730136   -0.494696
  H     -4.933112    1.148655   -0.807624
  H     -3.782722    0.748941   -2.070306
  H     -4.485008   -0.551608   -1.058983
  C     -1.958737    0.082476    2.139411
  H     -2.580749    0.814019    2.667312
  H     -1.851094   -0.786838    2.789579
  H     -0.967756    0.518584    1.995958
  C     -0.749769   -2.201632    0.717302
  H     -1.572931   -2.865336    0.993030
  H      0.002799   -2.785863    0.172711
  H     -0.268787   -1.802293    1.609426
  C     -1.818563   -1.634244   -1.517081
  H     -1.058664   -2.256954   -2.003334
  H     -2.697459   -2.255088   -1.322946
  H     -2.070856   -0.829127   -2.208156

ORBITAL ENERGIES
----------------
                 SPIN UP ORBITALS
  NO   OCC          E(Eh)            E(eV)
   0   1.0000    -261.550948     -7117.1631
   1   1.0000    -104.775244     -2851.0793
   2   1.0000    -104.772668     -2851.0093
   3   1.0000    -104.772506     -2851.0048
   4   1.0000     -32.218828      -876.7189
   5   1.0000     -27.694939      -753.6176
   6   1.0000     -27.694377      -753.6023
   7   1.0000     -27.694220      -753.5980
   8   1.0000     -20.562925      -559.5456
   9   1.0000     -11.385617      -309.8184
  10   1.0000     -11.355648      -309.0029
  11   1.0000     -11.287426      -307.1465
  12   1.0000     -11.279020      -306.9177
  13   1.0000     -11.264134      -306.5127
  14   1.0000     -11.256950      -306.3172
  15   1.0000     -11.249990      -306.1278
  16   1.0000     -11.249105      -306.1037
  17   1.0000     -10.501884      -285.7708
  18   1.0000     -10.499262      -285.6995
  19   1.0000     -10.499134      -285.6959
  20   1.0000      -7.968746      -216.8406
  21   1.0000      -7.967937      -216.8186
  22   1.0000      -7.967900      -216.8176
  23   1.0000      -7.966080      -216.7680
  24   1.0000      -7.965994      -216.7657
  25   1.0000      -7.965382      -216.7491
  26   1.0000      -7.965288      -216.7465
  27   1.0000      -7.965232      -216.7450
  28   1.0000      -7.965150      -216.7428
  29   1.0000      -4.574152      -124.4690
  30   1.0000      -3.186941       -86.7211
  31   1.0000      -3.186030       -86.6963
  32   1.0000      -3.185642       -86.6857
  33   1.0000      -1.402933       -38.1758
  34   1.0000      -1.179587       -32.0982
  35   1.0000      -1.080869       -29.4119
  36   1.0000      -1.046937       -28.4886
  37   1.0000      -1.044399       -28.4195
  38   1.0000      -1.041120       -28.3303
  39   1.0000      -1.039385       -28.2831
  40   1.0000      -1.003893       -27.3173
  41   1.0000      -0.982516       -26.7356
  42   1.0000      -0.926148       -25.2018
  43   1.0000      -0.917437       -24.9647
  44   1.0000      -0.903516       -24.5859
  45   1.0000      -0.903492       -24.5853
  46   1.0000      -0.894129       -24.3305
  47   1.0000      -0.893742       -24.3200
  48   1.0000      -0.790467       -21.5097
  49   1.0000      -0.767114       -20.8742
  50   1.0000      -0.696623       -18.9561
  51   1.0000      -0.690323       -18.7846
  52   1.0000      -0.670264       -18.2388
  53   1.0000      -0.665227       -18.1017
  54   1.0000      -0.655252       -17.8303
  55   1.0000      -0.628560       -17.1040
  56   1.0000      -0.603417       -16.4198
  57   1.0000      -0.595156       -16.1950
  58   1.0000      -0.591246       -16.0886
  59   1.0000      -0.577086       -15.7033
  60   1.0000      -0.574841       -15.6422
  61   1.0000      -0.565464       -15.3871
  62   1.0000      -0.558550       -15.1989
  63   1.0000      -0.543133       -14.7794
  64   1.0000      -0.533483       -14.5168
  65   1.0000      -0.525035       -14.2869
  66   1.0000      -0.511356       -13.9147
  67   1.0000      -0.475062       -12.9271
  68   1.0000      -0.461433       -12.5562
  69   1.0000      -0.451145       -12.2763
  70   1.0000      -0.428357       -11.6562
  71   1.0000      -0.425053       -11.5663
  72   1.0000      -0.421871       -11.4797
  73   1.0000      -0.413726       -11.2581
  74   1.0000      -0.411849       -11.2070
  75   1.0000      -0.411425       -11.1954
  76   1.0000      -0.392695       -10.6858
  77   0.0000       0.006115         0.1664
  78   0.0000       0.016520         0.4495
  79   0.0000       0.019258         0.5240
  80   0.0000       0.020918         0.5692
  81   0.0000       0.029398         0.8000

                 SPIN DOWN ORBITALS
  NO   OCC          E(Eh)            E(eV)
   0   1.0000    -261.547392     -7117.0663
   1   1.0000    -104.773830     -2851.0409
   2   1.0000    -104.771245     -2850.9705
   3   1.0000    -104.771051     -2850.9652
   4   1.0000     -32.056748      -872.3085
   5   1.0000     -27.534749      -749.2586
   6   1.0000     -27.534652      -749.2560
   7   1.0000     -27.534287      -749.2460
   8   1.0000     -20.558224      -559.4177
   9   1.0000     -11.385608      -309.8181
  10   1.0000     -11.355275      -308.9927
  11   1.0000     -11.287477      -307.1479
  12   1.0000     -11.279029      -306.9180
  13   1.0000     -11.264185      -306.5141
  14   1.0000     -11.256844      -306.3143
  15   1.0000     -11.249985      -306.1277
  16   1.0000     -11.249123      -306.1042
  17   1.0000     -10.500367      -285.7295
  18   1.0000     -10.497741      -285.6581
  19   1.0000     -10.497575      -285.6535
  20   1.0000      -7.966263      -216.7730
  21   1.0000      -7.965656      -216.7565
  22   1.0000      -7.965588      -216.7547
  23   1.0000      -7.963713      -216.7037
  24   1.0000      -7.963493      -216.6976
  25   1.0000      -7.962996      -216.6841
  26   1.0000      -7.962894      -216.6814
  27   1.0000      -7.962839      -216.6799
  28   1.0000      -7.962750      -216.6774
  29   1.0000      -4.131827      -112.4327
  30   1.0000      -2.653569       -72.2073
  31   1.0000      -2.653523       -72.2060
  32   1.0000      -2.652784       -72.1859
  33   1.0000      -1.390911       -37.8486
  34   1.0000      -1.178362       -32.0648
  35   1.0000      -1.078276       -29.3414
  36   1.0000      -1.044026       -28.4094
  37   1.0000      -1.031939       -28.0805
  38   1.0000      -1.020262       -27.7627
  39   1.0000      -1.018592       -27.7173
  40   1.0000      -1.003726       -27.3128
  41   1.0000      -0.981879       -26.7183
  42   1.0000      -0.924647       -25.1609
  43   1.0000      -0.803383       -21.8612
  44   1.0000      -0.768576       -20.9140
  45   1.0000      -0.697331       -18.9753
  46   1.0000      -0.689810       -18.7707
  47   1.0000      -0.672129       -18.2896
  48   1.0000      -0.664809       -18.0904
  49   1.0000      -0.654534       -17.8108
  50   1.0000      -0.628071       -17.0907
  51   1.0000      -0.603191       -16.4137
  52   1.0000      -0.594715       -16.1830
  53   1.0000      -0.590828       -16.0772
  54   1.0000      -0.576897       -15.6982
  55   1.0000      -0.574687       -15.6380
  56   1.0000      -0.565005       -15.3746
  57   1.0000      -0.558456       -15.1964
  58   1.0000      -0.542397       -14.7594
  59   1.0000      -0.532563       -14.4918
  60   1.0000      -0.521937       -14.2026
  61   1.0000      -0.503285       -13.6951
  62   1.0000      -0.472594       -12.8599
  63   1.0000      -0.465426       -12.6649
  64   1.0000      -0.461277       -12.5520
  65   1.0000      -0.436465       -11.8768
  66   1.0000      -0.433564       -11.7979
  67   1.0000      -0.431624       -11.7451
  68   1.0000      -0.421885       -11.4801
  69   1.0000      -0.411389       -11.1945
  70   1.0000      -0.397418       -10.8143
  71   1.0000      -0.388707       -10.5772
  72   0.0000       0.006122         0.1666
  73   0.0000       0.016544         0.4502
  74   0.0000       0.019270         0.5244
  75   0.0000       0.020828         0.5668
  76   0.0000       0.029335         0.7982

E(0)                                       ...  -3028.429149031
E(0)                                       ...  -3028.429149031
E(CORR)(strong-pairs)                      ...     -2.875461605
E(CORR)(weak-pairs)                        ...     -0.035462277
E(CORR)(corrected)                         ...     -2.910923882
E(TOT)                                     ...  -3031.340072913
E(CCSD(T))                                 ...  -3031.460708096
FINAL SINGLE POINT ENERGY     -3031.460708095927

DIPOLE MOMENT
-------------
                                X             Y             Z
Electronic contribution:     43.33219       6.25057      -1.51779
Nuclear contribution   :    -48.52676      -6.79852       1.43474
                        -----------------------------------------
Total Dipole Moment    :     -5.19456      -0.54795      -0.08305
                        -----------------------------------------
Magnitude (a.u.)       :      5.22404
Magnitude (Debye)      :     13.27846

Rotational constants in cm-1:     0.019861     0.010222     0.009777
Rotational constants in MHz :   595.422646   306.441701   293.116054

                             ****ORCA TERMINATED NORMALLY****
TOTAL RUN TIME: 0 days 20 hours 57 minutes 49 seconds 954 msec
