                         Program Version 4.1.2  - RELEASE  -
|  1> ! aug-cc-pVTZ aug-cc-pVTZ/C DLPNO-CCSD(T1) TightSCF NormalPNO UNO MiniPrint AutoAux
|  2> %pal nproc 10 end
|  3> %maxcore 20000
|  4> %mdci
|  5>      density none
|  6> end
|  7>
|  8> * xyz 0 6
|  9>  O     -0.30859400     -0.32959800     -0.72236600
| 10>  C     -1.38411300     -1.21353000     -0.47670600
| 11>  C     -2.52305400     -0.36485500      0.25988500
| 12>  C     -2.24189100      1.04976100     -0.12050300
| 13>  C     -2.63188100      1.55442400     -1.45332700
| 14> Fe      1.34098300      0.06693300     -0.03155800
| 15> Cl      1.56304000      2.19659900     -0.72746900
| 16>  C     -1.55569400      1.98716700      0.76058100
| 17> Cl      2.86012500     -1.34139900     -0.75066300
| 18> Cl      1.12346100      0.05416500      2.19450500
| 19>  H     -3.47620200     -0.64508100     -0.20573500
| 20>  H     -2.14233000      2.91170000      0.85178100
| 21>  H     -1.27676000      1.59203500      1.73318400
| 22>  H     -0.62865500      2.30257200      0.22922800
| 23>  H     -2.83031700      2.62956800     -1.44716800
| 24>  H     -1.73306200      1.40211800     -2.07481100
| 25>  H     -3.45641600      1.00091900     -1.90428900
| 26>  C     -2.62590800     -0.58015800      1.77586200
| 27>  H     -3.35389900      0.10888300      2.21764900
| 28>  H     -2.97237200     -1.59703400      1.97409400
| 29>  H     -1.66598200     -0.44556500      2.27807100
| 30>  C     -0.92696200     -2.40907300      0.36074100
| 31>  H     -1.73995800     -3.12163900      0.53515100
| 32>  H     -0.13708600     -2.91828900     -0.20150800
| 33>  H     -0.50613200     -2.09919500      1.31819800
| 34>  C     -1.89933800     -1.71472700     -1.83246700
| 35>  H     -1.08410600     -2.23929000     -2.33832200
| 36>  H     -2.74067300     -2.40556100     -1.70756500
| 37>  H     -2.21244800     -0.89286700     -2.48127300
| 38> *
| 39>
| 40>
| 41>                          ****END OF INPUT****

CARTESIAN COORDINATES (ANGSTROEM)
---------------------------------
  O     -0.308594   -0.329598   -0.722366
  C     -1.384113   -1.213530   -0.476706
  C     -2.523054   -0.364855    0.259885
  C     -2.241891    1.049761   -0.120503
  C     -2.631881    1.554424   -1.453327
  Fe     1.340983    0.066933   -0.031558
  Cl     1.563040    2.196599   -0.727469
  C     -1.555694    1.987167    0.760581
  Cl     2.860125   -1.341399   -0.750663
  Cl     1.123461    0.054165    2.194505
  H     -3.476202   -0.645081   -0.205735
  H     -2.142330    2.911700    0.851781
  H     -1.276760    1.592035    1.733184
  H     -0.628655    2.302572    0.229228
  H     -2.830317    2.629568   -1.447168
  H     -1.733062    1.402118   -2.074811
  H     -3.456416    1.000919   -1.904289
  C     -2.625908   -0.580158    1.775862
  H     -3.353899    0.108883    2.217649
  H     -2.972372   -1.597034    1.974094
  H     -1.665982   -0.445565    2.278071
  C     -0.926962   -2.409073    0.360741
  H     -1.739958   -3.121639    0.535151
  H     -0.137086   -2.918289   -0.201508
  H     -0.506132   -2.099195    1.318198
  C     -1.899338   -1.714727   -1.832467
  H     -1.084106   -2.239290   -2.338322
  H     -2.740673   -2.405561   -1.707565
  H     -2.212448   -0.892867   -2.481273

ORBITAL ENERGIES
----------------
                 SPIN UP ORBITALS
  NO   OCC          E(Eh)            E(eV)
   0   1.0000    -261.541101     -7116.8952
   1   1.0000    -104.772942     -2851.0167
   2   1.0000    -104.772328     -2851.0000
   3   1.0000    -104.766595     -2850.8440
   4   1.0000     -32.208970      -876.4506
   5   1.0000     -27.685056      -753.3487
   6   1.0000     -27.684706      -753.3391
   7   1.0000     -27.684247      -753.3267
   8   1.0000     -20.532401      -558.7150
   9   1.0000     -11.418916      -310.7245
  10   1.0000     -11.330748      -308.3253
  11   1.0000     -11.297908      -307.4317
  12   1.0000     -11.295046      -307.3538
  13   1.0000     -11.279234      -306.9236
  14   1.0000     -11.256656      -306.3092
  15   1.0000     -11.237579      -305.7901
  16   1.0000     -11.228500      -305.5430
  17   1.0000     -10.499538      -285.7070
  18   1.0000     -10.498812      -285.6872
  19   1.0000     -10.493143      -285.5329
  20   1.0000      -7.966454      -216.7782
  21   1.0000      -7.965660      -216.7566
  22   1.0000      -7.965549      -216.7536
  23   1.0000      -7.965506      -216.7524
  24   1.0000      -7.964839      -216.7343
  25   1.0000      -7.964735      -216.7315
  26   1.0000      -7.959908      -216.6001
  27   1.0000      -7.959276      -216.5829
  28   1.0000      -7.959177      -216.5802
  29   1.0000      -4.564495      -124.2062
  30   1.0000      -3.177082       -86.4528
  31   1.0000      -3.176560       -86.4386
  32   1.0000      -3.176234       -86.4297
  33   1.0000      -1.346593       -36.6427
  34   1.0000      -1.196516       -32.5589
  35   1.0000      -1.097722       -29.8705
  36   1.0000      -1.044042       -28.4098
  37   1.0000      -1.039715       -28.2921
  38   1.0000      -1.037469       -28.2310
  39   1.0000      -1.033788       -28.1308
  40   1.0000      -1.020789       -27.7771
  41   1.0000      -0.962874       -26.2011
  42   1.0000      -0.931439       -25.3457
  43   1.0000      -0.901767       -24.5383
  44   1.0000      -0.894287       -24.3348
  45   1.0000      -0.893928       -24.3250
  46   1.0000      -0.887169       -24.1411
  47   1.0000      -0.886195       -24.1146
  48   1.0000      -0.809766       -22.0348
  49   1.0000      -0.760606       -20.6971
  50   1.0000      -0.713494       -19.4152
  51   1.0000      -0.690820       -18.7982
  52   1.0000      -0.681035       -18.5319
  53   1.0000      -0.644158       -17.5284
  54   1.0000      -0.635346       -17.2886
  55   1.0000      -0.621240       -16.9048
  56   1.0000      -0.608117       -16.5477
  57   1.0000      -0.599338       -16.3088
  58   1.0000      -0.589791       -16.0490
  59   1.0000      -0.587283       -15.9808
  60   1.0000      -0.573635       -15.6094
  61   1.0000      -0.554661       -15.0931
  62   1.0000      -0.549044       -14.9402
  63   1.0000      -0.536972       -14.6118
  64   1.0000      -0.524590       -14.2748
  65   1.0000      -0.517749       -14.0887
  66   1.0000      -0.500434       -13.6175
  67   1.0000      -0.466723       -12.7002
  68   1.0000      -0.464227       -12.6323
  69   1.0000      -0.442993       -12.0545
  70   1.0000      -0.435586       -11.8529
  71   1.0000      -0.421529       -11.4704
  72   1.0000      -0.418228       -11.3806
  73   1.0000      -0.415521       -11.3069
  74   1.0000      -0.410771       -11.1777
  75   1.0000      -0.409561       -11.1447
  76   1.0000      -0.407407       -11.0861
  77   0.0000      -0.003040        -0.0827
  78   0.0000       0.004221         0.1149
  79   0.0000       0.018877         0.5137
  80   0.0000       0.019399         0.5279
  81   0.0000       0.030135         0.8200

                 SPIN DOWN ORBITALS
  NO   OCC          E(Eh)            E(eV)
   0   1.0000    -261.537561     -7116.7988
   1   1.0000    -104.771647     -2850.9814
   2   1.0000    -104.771136     -2850.9676
   3   1.0000    -104.765190     -2850.8058
   4   1.0000     -32.046963      -872.0422
   5   1.0000     -27.525195      -748.9986
   6   1.0000     -27.524902      -748.9907
   7   1.0000     -27.524209      -748.9718
   8   1.0000     -20.525638      -558.5310
   9   1.0000     -11.418929      -310.7249
  10   1.0000     -11.330510      -308.3189
  11   1.0000     -11.297901      -307.4315
  12   1.0000     -11.294948      -307.3512
  13   1.0000     -11.279262      -306.9243
  14   1.0000     -11.256662      -306.3093
  15   1.0000     -11.237483      -305.7874
  16   1.0000     -11.228469      -305.5422
  17   1.0000     -10.498138      -285.6689
  18   1.0000     -10.497524      -285.6521
  19   1.0000     -10.491641      -285.4921
  20   1.0000      -7.963988      -216.7111
  21   1.0000      -7.963564      -216.6996
  22   1.0000      -7.963510      -216.6981
  23   1.0000      -7.963369      -216.6943
  24   1.0000      -7.963017      -216.6847
  25   1.0000      -7.962918      -216.6820
  26   1.0000      -7.957677      -216.5394
  27   1.0000      -7.956852      -216.5170
  28   1.0000      -7.956783      -216.5151
  29   1.0000      -4.122449      -112.1775
  30   1.0000      -2.644491       -71.9603
  31   1.0000      -2.644282       -71.9546
  32   1.0000      -2.643501       -71.9333
  33   1.0000      -1.329009       -36.1642
  34   1.0000      -1.194979       -32.5170
  35   1.0000      -1.094798       -29.7910
  36   1.0000      -1.040095       -28.3024
  37   1.0000      -1.028895       -27.9976
  38   1.0000      -1.020743       -27.7758
  39   1.0000      -1.018817       -27.7234
  40   1.0000      -1.013697       -27.5841
  41   1.0000      -0.962058       -26.1789
  42   1.0000      -0.929924       -25.3045
  43   1.0000      -0.812915       -22.1205
  44   1.0000      -0.767144       -20.8750
  45   1.0000      -0.714519       -19.4431
  46   1.0000      -0.690667       -18.7940
  47   1.0000      -0.681404       -18.5419
  48   1.0000      -0.644023       -17.5248
  49   1.0000      -0.637590       -17.3497
  50   1.0000      -0.619182       -16.8488
  51   1.0000      -0.608269       -16.5519
  52   1.0000      -0.599655       -16.3174
  53   1.0000      -0.588682       -16.0188
  54   1.0000      -0.586789       -15.9673
  55   1.0000      -0.571977       -15.5643
  56   1.0000      -0.554594       -15.0913
  57   1.0000      -0.545761       -14.8509
  58   1.0000      -0.536004       -14.5854
  59   1.0000      -0.520111       -14.1529
  60   1.0000      -0.516153       -14.0452
  61   1.0000      -0.496568       -13.5123
  62   1.0000      -0.465505       -12.6670
  63   1.0000      -0.462712       -12.5910
  64   1.0000      -0.447793       -12.1851
  65   1.0000      -0.445690       -12.1278
  66   1.0000      -0.433233       -11.7889
  67   1.0000      -0.428962       -11.6727
  68   1.0000      -0.427110       -11.6223
  69   1.0000      -0.407830       -11.0976
  70   1.0000      -0.399414       -10.8686
  71   1.0000      -0.396977       -10.8023
  72   0.0000      -0.003317        -0.0903
  73   0.0000       0.004217         0.1148
  74   0.0000       0.018865         0.5133
  75   0.0000       0.019385         0.5275
  76   0.0000       0.030162         0.8208

E(0)                                       ...  -3028.428180155
E(0)                                       ...  -3028.428180155
E(CORR)(strong-pairs)                      ...     -2.869376944
E(CORR)(weak-pairs)                        ...     -0.036290057
E(CORR)(corrected)                         ...     -2.905667001
E(TOT)                                     ...  -3031.333847157
E(CCSD(T))                                 ...  -3031.450975183
FINAL SINGLE POINT ENERGY     -3031.450975183377

DIPOLE MOMENT
-------------
                                X             Y             Z
Electronic contribution:     38.25691       6.26788       1.72462
Nuclear contribution   :    -43.38504      -5.76095      -2.06085
                        -----------------------------------------
Total Dipole Moment    :     -5.12813       0.50693      -0.33623
                        -----------------------------------------
Magnitude (a.u.)       :      5.16408
Magnitude (Debye)      :     13.12604

Rotational constants in cm-1:     0.018785     0.012167     0.011046
Rotational constants in MHz :   563.151830   364.749339   331.141692

                             ****ORCA TERMINATED NORMALLY****
TOTAL RUN TIME: 0 days 21 hours 35 minutes 11 seconds 997 msec
