                         Program Version 4.1.2  - RELEASE  -
|  1> ! aug-cc-pVTZ aug-cc-pVTZ/C DLPNO-CCSD(T1) TightSCF NormalPNO UNO MiniPrint AutoAux
|  2> %pal nproc 10 end
|  3> %maxcore 20000
|  4> %mdci
|  5>      density none
|  6> end
|  7>
|  8> * xyz 0 6
|  9>  O      0.19164500      0.34712700     -0.84278500
| 10>  C      1.04184300      1.26271900     -0.64939600
| 11>  C      2.89793500      0.27238000      0.60625400
| 12>  C      2.76056700     -0.88811400     -0.08301100
| 13>  C      3.44764700     -1.11239700     -1.39917100
| 14> Fe     -1.49694300     -0.17095000     -0.01811500
| 15> Cl     -2.01583500     -2.03956500     -1.01187600
| 16>  C      1.86799700     -2.00556400      0.36145400
| 17> Cl     -2.76404100      1.55396800     -0.47421500
| 18> Cl     -1.14868400     -0.40540800      2.13975500
| 19>  H      3.60242700      1.00083100      0.20622900
| 20>  H      2.40597300     -2.96134200      0.33947200
| 21>  H      1.44856900     -1.86220900      1.35701300
| 22>  H      1.03184400     -2.10547200     -0.34607500
| 23>  H      4.09884500     -1.99341800     -1.32853400
| 24>  H      2.71903300     -1.33287300     -2.19117800
| 25>  H      4.06334100     -0.26226100     -1.70368600
| 26>  C      2.53477100      0.45790300      2.06098300
| 27>  H      3.26945500     -0.06114800      2.69028500
| 28>  H      2.56187400      1.51165000      2.34838000
| 29>  H      1.54872400      0.06391600      2.31527700
| 30>  C      0.79641300      2.28524600      0.42273400
| 31>  H      1.67790800      2.89142500      0.63396600
| 32>  H      0.00983900      2.94078200      0.02051000
| 33>  H      0.40675600      1.83745800      1.33660900
| 34>  C      1.86061500      1.68163600     -1.84012200
| 35>  H      1.23157400      2.39025100     -2.39780500
| 36>  H      2.78094900      2.19627500     -1.56179900
| 37>  H      2.06906300      0.83805800     -2.49604200
| 38> *
| 39>
| 40>
| 41>                          ****END OF INPUT****

CARTESIAN COORDINATES (ANGSTROEM)
---------------------------------
  O      0.191645    0.347127   -0.842785
  C      1.041843    1.262719   -0.649396
  C      2.897935    0.272380    0.606254
  C      2.760567   -0.888114   -0.083011
  C      3.447647   -1.112397   -1.399171
  Fe    -1.496943   -0.170950   -0.018115
  Cl    -2.015835   -2.039565   -1.011876
  C      1.867997   -2.005564    0.361454
  Cl    -2.764041    1.553968   -0.474215
  Cl    -1.148684   -0.405408    2.139755
  H      3.602427    1.000831    0.206229
  H      2.405973   -2.961342    0.339472
  H      1.448569   -1.862209    1.357013
  H      1.031844   -2.105472   -0.346075
  H      4.098845   -1.993418   -1.328534
  H      2.719033   -1.332873   -2.191178
  H      4.063341   -0.262261   -1.703686
  C      2.534771    0.457903    2.060983
  H      3.269455   -0.061148    2.690285
  H      2.561874    1.511650    2.348380
  H      1.548724    0.063916    2.315277
  C      0.796413    2.285246    0.422734
  H      1.677908    2.891425    0.633966
  H      0.009839    2.940782    0.020510
  H      0.406756    1.837458    1.336609
  C      1.860615    1.681636   -1.840122
  H      1.231574    2.390251   -2.397805
  H      2.780949    2.196275   -1.561799
  H      2.069063    0.838058   -2.496042

ORBITAL ENERGIES
----------------
                 SPIN UP ORBITALS
  NO   OCC          E(Eh)            E(eV)
   0   1.0000    -261.571079     -7117.7109
   1   1.0000    -104.791240     -2851.5146
   2   1.0000    -104.787505     -2851.4130
   3   1.0000    -104.785152     -2851.3489
   4   1.0000     -32.238848      -877.2637
   5   1.0000     -27.715254      -754.1704
   6   1.0000     -27.714241      -754.1428
   7   1.0000     -27.714032      -754.1371
   8   1.0000     -20.611358      -560.8636
   9   1.0000     -11.419400      -310.7377
  10   1.0000     -11.281583      -306.9875
  11   1.0000     -11.274989      -306.8080
  12   1.0000     -11.270583      -306.6882
  13   1.0000     -11.251100      -306.1580
  14   1.0000     -11.250523      -306.1423
  15   1.0000     -11.237416      -305.7856
  16   1.0000     -11.235889      -305.7441
  17   1.0000     -10.517958      -286.2082
  18   1.0000     -10.514182      -286.1054
  19   1.0000     -10.511780      -286.0401
  20   1.0000      -7.984798      -217.2774
  21   1.0000      -7.984025      -217.2564
  22   1.0000      -7.983988      -217.2554
  23   1.0000      -7.981042      -217.1752
  24   1.0000      -7.980285      -217.1546
  25   1.0000      -7.980232      -217.1532
  26   1.0000      -7.978583      -217.1083
  27   1.0000      -7.977910      -217.0900
  28   1.0000      -7.977847      -217.0883
  29   1.0000      -4.593854      -125.0051
  30   1.0000      -3.206984       -87.2665
  31   1.0000      -3.205334       -87.2216
  32   1.0000      -3.205136       -87.2162
  33   1.0000      -1.453970       -39.5645
  34   1.0000      -1.135380       -30.8953
  35   1.0000      -1.096705       -29.8429
  36   1.0000      -1.063772       -28.9467
  37   1.0000      -1.057815       -28.7846
  38   1.0000      -1.054422       -28.6923
  39   1.0000      -1.024625       -27.8815
  40   1.0000      -1.007084       -27.4042
  41   1.0000      -0.965977       -26.2856
  42   1.0000      -0.939310       -25.5599
  43   1.0000      -0.922901       -25.1134
  44   1.0000      -0.922740       -25.1090
  45   1.0000      -0.912434       -24.8286
  46   1.0000      -0.911667       -24.8077
  47   1.0000      -0.901312       -24.5260
  48   1.0000      -0.809650       -22.0317
  49   1.0000      -0.737664       -20.0729
  50   1.0000      -0.706178       -19.2161
  51   1.0000      -0.696404       -18.9501
  52   1.0000      -0.682461       -18.5707
  53   1.0000      -0.660879       -17.9834
  54   1.0000      -0.627201       -17.0670
  55   1.0000      -0.621204       -16.9038
  56   1.0000      -0.605942       -16.4885
  57   1.0000      -0.598245       -16.2791
  58   1.0000      -0.584487       -15.9047
  59   1.0000      -0.576399       -15.6846
  60   1.0000      -0.561259       -15.2726
  61   1.0000      -0.557946       -15.1825
  62   1.0000      -0.546387       -14.8679
  63   1.0000      -0.545505       -14.8439
  64   1.0000      -0.534800       -14.5526
  65   1.0000      -0.529177       -14.3996
  66   1.0000      -0.501348       -13.6424
  67   1.0000      -0.497767       -13.5449
  68   1.0000      -0.474533       -12.9127
  69   1.0000      -0.472436       -12.8556
  70   1.0000      -0.443635       -12.0719
  71   1.0000      -0.437850       -11.9145
  72   1.0000      -0.435728       -11.8568
  73   1.0000      -0.427441       -11.6313
  74   1.0000      -0.426111       -11.5951
  75   1.0000      -0.424706       -11.5568
  76   1.0000      -0.364521        -9.9191
  77   0.0000       0.012160         0.3309
  78   0.0000       0.022708         0.6179
  79   0.0000       0.023723         0.6455
  80   0.0000       0.030093         0.8189
  81   0.0000       0.038828         1.0566

                 SPIN DOWN ORBITALS
  NO   OCC          E(Eh)            E(eV)
   0   1.0000    -261.567502     -7117.6136
   1   1.0000    -104.789767     -2851.4745
   2   1.0000    -104.785963     -2851.3710
   3   1.0000    -104.783609     -2851.3070
   4   1.0000     -32.076829      -872.8549
   5   1.0000     -27.554743      -749.8027
   6   1.0000     -27.554683      -749.8010
   7   1.0000     -27.554545      -749.7973
   8   1.0000     -20.607628      -560.7621
   9   1.0000     -11.419303      -310.7350
  10   1.0000     -11.281521      -306.9858
  11   1.0000     -11.274880      -306.8051
  12   1.0000     -11.270569      -306.6878
  13   1.0000     -11.251108      -306.1582
  14   1.0000     -11.250540      -306.1428
  15   1.0000     -11.237411      -305.7855
  16   1.0000     -11.235908      -305.7446
  17   1.0000     -10.516383      -286.1653
  18   1.0000     -10.512536      -286.0606
  19   1.0000     -10.510139      -285.9954
  20   1.0000      -7.982290      -217.2092
  21   1.0000      -7.981590      -217.1901
  22   1.0000      -7.981547      -217.1889
  23   1.0000      -7.978439      -217.1044
  24   1.0000      -7.977726      -217.0850
  25   1.0000      -7.977640      -217.0826
  26   1.0000      -7.976118      -217.0412
  27   1.0000      -7.975269      -217.0181
  28   1.0000      -7.975180      -217.0157
  29   1.0000      -4.151697      -112.9734
  30   1.0000      -2.673302       -72.7442
  31   1.0000      -2.673237       -72.7425
  32   1.0000      -2.672758       -72.7294
  33   1.0000      -1.444727       -39.3130
  34   1.0000      -1.135018       -30.8854
  35   1.0000      -1.094105       -29.7721
  36   1.0000      -1.048216       -28.5234
  37   1.0000      -1.035776       -28.1849
  38   1.0000      -1.032026       -28.0829
  39   1.0000      -1.024024       -27.8651
  40   1.0000      -1.006475       -27.3876
  41   1.0000      -0.965910       -26.2838
  42   1.0000      -0.901515       -24.5315
  43   1.0000      -0.823759       -22.4156
  44   1.0000      -0.737752       -20.0753
  45   1.0000      -0.708526       -19.2800
  46   1.0000      -0.695422       -18.9234
  47   1.0000      -0.681834       -18.5536
  48   1.0000      -0.660800       -17.9813
  49   1.0000      -0.627175       -17.0663
  50   1.0000      -0.620729       -16.8909
  51   1.0000      -0.605580       -16.4787
  52   1.0000      -0.598092       -16.2749
  53   1.0000      -0.584147       -15.8954
  54   1.0000      -0.574736       -15.6393
  55   1.0000      -0.560929       -15.2637
  56   1.0000      -0.557772       -15.1778
  57   1.0000      -0.546208       -14.8631
  58   1.0000      -0.544095       -14.8056
  59   1.0000      -0.530568       -14.4375
  60   1.0000      -0.521194       -14.1824
  61   1.0000      -0.501834       -13.6556
  62   1.0000      -0.498779       -13.5725
  63   1.0000      -0.482177       -13.1207
  64   1.0000      -0.479106       -13.0372
  65   1.0000      -0.451686       -12.2910
  66   1.0000      -0.447754       -12.1840
  67   1.0000      -0.445079       -12.1112
  68   1.0000      -0.429232       -11.6800
  69   1.0000      -0.425554       -11.5799
  70   1.0000      -0.410639       -11.1741
  71   1.0000      -0.363665        -9.8958
  72   0.0000       0.012143         0.3304
  73   0.0000       0.022682         0.6172
  74   0.0000       0.023687         0.6446
  75   0.0000       0.029956         0.8151
  76   0.0000       0.038606         1.0505

E(0)                                       ...  -3028.455942467
E(0)                                       ...  -3028.455942467
E(CORR)(strong-pairs)                      ...     -2.868768862
E(CORR)(weak-pairs)                        ...     -0.036165863
E(CORR)(corrected)                         ...     -2.904934725
E(TOT)                                     ...  -3031.360877192
E(CCSD(T))                                 ...  -3031.479394465
FINAL SINGLE POINT ENERGY     -3031.479394464911

DIPOLE MOMENT
-------------
                                X             Y             Z
Electronic contribution:    -43.71313      -5.46940       1.01866
Nuclear contribution   :     47.34615       6.76993      -1.59611
                        -----------------------------------------
Total Dipole Moment    :      3.63302       1.30053      -0.57746
                        -----------------------------------------
Magnitude (a.u.)       :      3.90175
Magnitude (Debye)      :      9.91747

Rotational constants in cm-1:     0.019046     0.010613     0.009990
Rotational constants in MHz :   570.987740   318.162663   299.485511

                             ****ORCA TERMINATED NORMALLY****
TOTAL RUN TIME: 0 days 16 hours 57 minutes 30 seconds 40 msec
