                         Program Version 4.1.2  - RELEASE  -
|  1> ! aug-cc-pVTZ aug-cc-pVTZ/C DLPNO-CCSD(T1) TightSCF NormalPNO UNO MiniPrint AutoAux
|  2> %pal nproc 10 end
|  3> %maxcore 20000
|  4> %mdci
|  5>      density none
|  6> end
|  7>
|  8> * xyz 0 6
|  9>  O      0.26264600      0.30590900     -0.78565700
| 10>  C      1.01517100      1.29531400     -0.63026300
| 11>  C      3.23236300     -0.02494800      0.32024400
| 12>  C      2.50150500     -1.00543800     -0.24682500
| 13>  C      2.66113100     -1.36202700     -1.69957500
| 14> Fe     -1.47222300     -0.13319800      0.04971300
| 15> Cl     -2.10334800     -1.96381800     -0.93981400
| 16>  C      1.59041300     -1.92374000      0.51641100
| 17> Cl     -2.60057100      1.67044600     -0.47522800
| 18> Cl     -1.20074500     -0.30970100      2.21806600
| 19>  H      3.93168600      0.51225900     -0.32113800
| 20>  H      2.10438900     -2.87991300      0.68710700
| 21>  H      1.28237800     -1.53486400      1.48710400
| 22>  H      0.69253200     -2.16003200     -0.06414600
| 23>  H      2.99344100     -2.40432600     -1.79166400
| 24>  H      1.69985300     -1.29614000     -2.22412700
| 25>  H      3.39557400     -0.73049600     -2.20820800
| 26>  C      3.31789300      0.30959200      1.78375600
| 27>  H      4.21299900     -0.14807600      2.22705400
| 28>  H      3.40878100      1.38955000      1.94625300
| 29>  H      2.45546800     -0.04654000      2.35320000
| 30>  C      0.93045000      2.14320200      0.59820900
| 31>  H      1.81989800      2.75952900      0.73323000
| 32>  H      0.06429400      2.80714400      0.45643900
| 33>  H      0.73529100      1.54119500      1.48648800
| 34>  C      1.75701000      1.82159100     -1.81905700
| 35>  H      1.12073900      2.61116100     -2.24665500
| 36>  H      2.70941500      2.27560300     -1.54127200
| 37>  H      1.89356900      1.05079400     -2.57576200
| 38> *
| 39>
| 40>
| 41>                          ****END OF INPUT****

CARTESIAN COORDINATES (ANGSTROEM)
---------------------------------
  O      0.262646    0.305909   -0.785657
  C      1.015171    1.295314   -0.630263
  C      3.232363   -0.024948    0.320244
  C      2.501505   -1.005438   -0.246825
  C      2.661131   -1.362027   -1.699575
  Fe    -1.472223   -0.133198    0.049713
  Cl    -2.103348   -1.963818   -0.939814
  C      1.590413   -1.923740    0.516411
  Cl    -2.600571    1.670446   -0.475228
  Cl    -1.200745   -0.309701    2.218066
  H      3.931686    0.512259   -0.321138
  H      2.104389   -2.879913    0.687107
  H      1.282378   -1.534864    1.487104
  H      0.692532   -2.160032   -0.064146
  H      2.993441   -2.404326   -1.791664
  H      1.699853   -1.296140   -2.224127
  H      3.395574   -0.730496   -2.208208
  C      3.317893    0.309592    1.783756
  H      4.212999   -0.148076    2.227054
  H      3.408781    1.389550    1.946253
  H      2.455468   -0.046540    2.353200
  C      0.930450    2.143202    0.598209
  H      1.819898    2.759529    0.733230
  H      0.064294    2.807144    0.456439
  H      0.735291    1.541195    1.486488
  C      1.757010    1.821591   -1.819057
  H      1.120739    2.611161   -2.246655
  H      2.709415    2.275603   -1.541272
  H      1.893569    1.050794   -2.575762

ORBITAL ENERGIES
----------------
                 SPIN UP ORBITALS
  NO   OCC          E(Eh)            E(eV)
   0   1.0000    -261.577754     -7117.8926
   1   1.0000    -104.794352     -2851.5993
   2   1.0000    -104.791951     -2851.5340
   3   1.0000    -104.790464     -2851.4935
   4   1.0000     -32.245407      -877.4421
   5   1.0000     -27.721928      -754.3520
   6   1.0000     -27.720729      -754.3194
   7   1.0000     -27.720555      -754.3146
   8   1.0000     -20.620698      -561.1177
   9   1.0000     -11.422999      -310.8356
  10   1.0000     -11.278821      -306.9123
  11   1.0000     -11.273232      -306.7602
  12   1.0000     -11.263576      -306.4975
  13   1.0000     -11.240723      -305.8756
  14   1.0000     -11.239171      -305.8334
  15   1.0000     -11.238253      -305.8084
  16   1.0000     -11.228492      -305.5428
  17   1.0000     -10.521067      -286.2928
  18   1.0000     -10.518638      -286.2267
  19   1.0000     -10.517095      -286.1847
  20   1.0000      -7.987893      -217.3616
  21   1.0000      -7.987157      -217.3416
  22   1.0000      -7.987100      -217.3400
  23   1.0000      -7.985540      -217.2976
  24   1.0000      -7.984728      -217.2755
  25   1.0000      -7.984660      -217.2737
  26   1.0000      -7.983876      -217.2523
  27   1.0000      -7.983220      -217.2345
  28   1.0000      -7.983177      -217.2333
  29   1.0000      -4.600218      -125.1783
  30   1.0000      -3.213388       -87.4407
  31   1.0000      -3.211572       -87.3913
  32   1.0000      -3.211460       -87.3883
  33   1.0000      -1.468097       -39.9489
  34   1.0000      -1.123343       -30.5677
  35   1.0000      -1.103151       -30.0183
  36   1.0000      -1.067939       -29.0601
  37   1.0000      -1.062314       -28.9070
  38   1.0000      -1.059966       -28.8431
  39   1.0000      -1.021280       -27.7904
  40   1.0000      -1.010861       -27.5069
  41   1.0000      -0.956636       -26.0314
  42   1.0000      -0.944060       -25.6892
  43   1.0000      -0.929132       -25.2830
  44   1.0000      -0.928991       -25.2791
  45   1.0000      -0.918010       -24.9803
  46   1.0000      -0.917650       -24.9705
  47   1.0000      -0.894745       -24.3472
  48   1.0000      -0.815393       -22.1880
  49   1.0000      -0.727003       -19.7828
  50   1.0000      -0.714305       -19.4372
  51   1.0000      -0.705343       -19.1934
  52   1.0000      -0.688025       -18.7221
  53   1.0000      -0.652854       -17.7651
  54   1.0000      -0.622244       -16.9321
  55   1.0000      -0.619538       -16.8585
  56   1.0000      -0.602840       -16.4041
  57   1.0000      -0.600491       -16.3402
  58   1.0000      -0.586203       -15.9514
  59   1.0000      -0.580231       -15.7889
  60   1.0000      -0.560305       -15.2467
  61   1.0000      -0.552599       -15.0370
  62   1.0000      -0.550404       -14.9772
  63   1.0000      -0.537543       -14.6273
  64   1.0000      -0.534682       -14.5494
  65   1.0000      -0.524932       -14.2841
  66   1.0000      -0.504557       -13.7297
  67   1.0000      -0.491089       -13.3632
  68   1.0000      -0.478277       -13.0146
  69   1.0000      -0.477119       -12.9831
  70   1.0000      -0.448002       -12.1908
  71   1.0000      -0.441553       -12.0153
  72   1.0000      -0.440025       -11.9737
  73   1.0000      -0.431455       -11.7405
  74   1.0000      -0.430015       -11.7013
  75   1.0000      -0.429407       -11.6848
  76   1.0000      -0.356674        -9.7056
  77   0.0000       0.012952         0.3524
  78   0.0000       0.023869         0.6495
  79   0.0000       0.024722         0.6727
  80   0.0000       0.030675         0.8347
  81   0.0000       0.039566         1.0766

                 SPIN DOWN ORBITALS
  NO   OCC          E(Eh)            E(eV)
   0   1.0000    -261.574174     -7117.7951
   1   1.0000    -104.792847     -2851.5583
   2   1.0000    -104.790400     -2851.4918
   3   1.0000    -104.788902     -2851.4510
   4   1.0000     -32.083440      -873.0348
   5   1.0000     -27.561392      -749.9836
   6   1.0000     -27.561267      -749.9802
   7   1.0000     -27.561171      -749.9776
   8   1.0000     -20.617352      -561.0267
   9   1.0000     -11.422882      -310.8324
  10   1.0000     -11.278721      -306.9096
  11   1.0000     -11.273231      -306.7602
  12   1.0000     -11.263656      -306.4997
  13   1.0000     -11.240609      -305.8725
  14   1.0000     -11.239178      -305.8336
  15   1.0000     -11.238240      -305.8081
  16   1.0000     -11.228496      -305.5429
  17   1.0000     -10.519460      -286.2491
  18   1.0000     -10.516982      -286.1816
  19   1.0000     -10.515436      -286.1396
  20   1.0000      -7.985388      -217.2934
  21   1.0000      -7.984624      -217.2727
  22   1.0000      -7.984579      -217.2714
  23   1.0000      -7.982837      -217.2240
  24   1.0000      -7.982199      -217.2067
  25   1.0000      -7.982098      -217.2039
  26   1.0000      -7.981433      -217.1858
  27   1.0000      -7.980522      -217.1610
  28   1.0000      -7.980443      -217.1589
  29   1.0000      -4.158164      -113.1494
  30   1.0000      -2.679713       -72.9187
  31   1.0000      -2.679639       -72.9167
  32   1.0000      -2.679262       -72.9064
  33   1.0000      -1.459847       -39.7245
  34   1.0000      -1.123051       -30.5598
  35   1.0000      -1.100920       -29.9576
  36   1.0000      -1.052251       -28.6332
  37   1.0000      -1.039673       -28.2909
  38   1.0000      -1.037252       -28.2251
  39   1.0000      -1.020468       -27.7683
  40   1.0000      -1.010484       -27.4967
  41   1.0000      -0.956419       -26.0255
  42   1.0000      -0.894877       -24.3508
  43   1.0000      -0.827622       -22.5208
  44   1.0000      -0.727072       -19.7846
  45   1.0000      -0.716172       -19.4880
  46   1.0000      -0.704551       -19.1718
  47   1.0000      -0.687422       -18.7057
  48   1.0000      -0.652812       -17.7639
  49   1.0000      -0.621684       -16.9169
  50   1.0000      -0.619484       -16.8570
  51   1.0000      -0.602661       -16.3993
  52   1.0000      -0.600455       -16.3392
  53   1.0000      -0.585929       -15.9439
  54   1.0000      -0.579328       -15.7643
  55   1.0000      -0.559129       -15.2147
  56   1.0000      -0.551606       -15.0100
  57   1.0000      -0.549129       -14.9426
  58   1.0000      -0.537399       -14.6234
  59   1.0000      -0.526642       -14.3307
  60   1.0000      -0.522486       -14.2176
  61   1.0000      -0.505743       -13.7620
  62   1.0000      -0.490799       -13.3553
  63   1.0000      -0.486282       -13.2324
  64   1.0000      -0.484331       -13.1793
  65   1.0000      -0.454960       -12.3801
  66   1.0000      -0.451944       -12.2980
  67   1.0000      -0.449003       -12.2180
  68   1.0000      -0.432466       -11.7680
  69   1.0000      -0.430735       -11.7209
  70   1.0000      -0.414408       -11.2766
  71   1.0000      -0.356110        -9.6902
  72   0.0000       0.012937         0.3520
  73   0.0000       0.023845         0.6488
  74   0.0000       0.024685         0.6717
  75   0.0000       0.030623         0.8333
  76   0.0000       0.039460         1.0738

E(0)                                       ...  -3028.463695368
E(0)                                       ...  -3028.463695368
E(CORR)(strong-pairs)                      ...     -2.867315614
E(CORR)(weak-pairs)                        ...     -0.035739081
E(CORR)(corrected)                         ...     -2.903054696
E(TOT)                                     ...  -3031.366750064
E(CCSD(T))                                 ...  -3031.484646085
FINAL SINGLE POINT ENERGY     -3031.484646085337

DIPOLE MOMENT
-------------
                                X             Y             Z
Electronic contribution:    -43.59595      -3.55459       2.21863
Nuclear contribution   :     46.83210       4.93720      -2.84004
                        -----------------------------------------
Total Dipole Moment    :      3.23615       1.38261      -0.62141
                        -----------------------------------------
Magnitude (a.u.)       :      3.57358
Magnitude (Debye)      :      9.08331

Rotational constants in cm-1:     0.018905     0.010767     0.010148
Rotational constants in MHz :   566.749777   322.772851   304.216707

                             ****ORCA TERMINATED NORMALLY****
TOTAL RUN TIME: 0 days 17 hours 53 minutes 17 seconds 736 msec
