                         Program Version 4.1.2  - RELEASE  -
|  1> ! aug-cc-pVTZ aug-cc-pVTZ/C DLPNO-CCSD(T1) TightSCF NormalPNO UNO MiniPrint AutoAux
|  2> %pal nproc 10 end
|  3> %maxcore 20000
|  4> %mdci
|  5>      density none
|  6> end
|  7>
|  8> * xyz 0 6
|  9>  O     -0.30020000     -0.31961500     -0.72299100
| 10>  C     -1.34843700     -1.20526600     -0.48687500
| 11>  C     -2.54033100     -0.37456300      0.29531300
| 12>  C     -2.31476600      1.02349300     -0.10038700
| 13>  C     -2.74940300      1.50405100     -1.42904600
| 14> Fe      1.35185600      0.07812000     -0.03710200
| 15> Cl      1.56604300      2.21116000     -0.72106300
| 16>  C     -1.58204700      1.97062200      0.73011100
| 17> Cl      2.86819300     -1.32878000     -0.76636600
| 18> Cl      1.14154400      0.05650000      2.18906000
| 19>  H     -3.47390800     -0.71766600     -0.16358400
| 20>  H     -2.09760700      2.93816600      0.76609200
| 21>  H     -1.31872700      1.61429400      1.72218400
| 22>  H     -0.63324900      2.18919300      0.18326600
| 23>  H     -2.98080400      2.57251100     -1.42672000
| 24>  H     -1.85973400      1.37606800     -2.06978400
| 25>  H     -3.56746100      0.92421900     -1.85766300
| 26>  C     -2.58685900     -0.60370800      1.81113600
| 27>  H     -3.32126800      0.06031700      2.27965700
| 28>  H     -2.89499100     -1.63147500      2.01445200
| 29>  H     -1.61620700     -0.44114400      2.28334400
| 30>  C     -0.89921500     -2.40388600      0.35086300
| 31>  H     -1.71408900     -3.11383500      0.52460600
| 32>  H     -0.11238400     -2.91259000     -0.21672300
| 33>  H     -0.47284900     -2.09722600      1.30663500
| 34>  C     -1.88880100     -1.69675000     -1.83597500
| 35>  H     -1.07973200     -2.22219500     -2.35140700
| 36>  H     -2.73023200     -2.38566200     -1.70449400
| 37>  H     -2.20252300     -0.87208600     -2.47987100
| 38> *
| 39>
| 40>
| 41>                          ****END OF INPUT****

CARTESIAN COORDINATES (ANGSTROEM)
---------------------------------
  O     -0.300200   -0.319615   -0.722991
  C     -1.348437   -1.205266   -0.486875
  C     -2.540331   -0.374563    0.295313
  C     -2.314766    1.023493   -0.100387
  C     -2.749403    1.504051   -1.429046
  Fe     1.351856    0.078120   -0.037102
  Cl     1.566043    2.211160   -0.721063
  C     -1.582047    1.970622    0.730111
  Cl     2.868193   -1.328780   -0.766366
  Cl     1.141544    0.056500    2.189060
  H     -3.473908   -0.717666   -0.163584
  H     -2.097607    2.938166    0.766092
  H     -1.318727    1.614294    1.722184
  H     -0.633249    2.189193    0.183266
  H     -2.980804    2.572511   -1.426720
  H     -1.859734    1.376068   -2.069784
  H     -3.567461    0.924219   -1.857663
  C     -2.586859   -0.603708    1.811136
  H     -3.321268    0.060317    2.279657
  H     -2.894991   -1.631475    2.014452
  H     -1.616207   -0.441144    2.283344
  C     -0.899215   -2.403886    0.350863
  H     -1.714089   -3.113835    0.524606
  H     -0.112384   -2.912590   -0.216723
  H     -0.472849   -2.097226    1.306635
  C     -1.888801   -1.696750   -1.835975
  H     -1.079732   -2.222195   -2.351407
  H     -2.730232   -2.385662   -1.704494
  H     -2.202523   -0.872086   -2.479871

ORBITAL ENERGIES
----------------
                 SPIN UP ORBITALS
  NO   OCC          E(Eh)            E(eV)
   0   1.0000    -261.541770     -7116.9134
   1   1.0000    -104.772921     -2851.0161
   2   1.0000    -104.772583     -2851.0069
   3   1.0000    -104.767078     -2850.8571
   4   1.0000     -32.209648      -876.4691
   5   1.0000     -27.685723      -753.3668
   6   1.0000     -27.685382      -753.3575
   7   1.0000     -27.684938      -753.3455
   8   1.0000     -20.532474      -558.7170
   9   1.0000     -11.414286      -310.5985
  10   1.0000     -11.337090      -308.4979
  11   1.0000     -11.298259      -307.4413
  12   1.0000     -11.292825      -307.2934
  13   1.0000     -11.277656      -306.8806
  14   1.0000     -11.255763      -306.2849
  15   1.0000     -11.238684      -305.8201
  16   1.0000     -11.229658      -305.5745
  17   1.0000     -10.499513      -285.7063
  18   1.0000     -10.499052      -285.6937
  19   1.0000     -10.493619      -285.5459
  20   1.0000      -7.966432      -216.7776
  21   1.0000      -7.965896      -216.7631
  22   1.0000      -7.965524      -216.7529
  23   1.0000      -7.965481      -216.7518
  24   1.0000      -7.965080      -216.7408
  25   1.0000      -7.964971      -216.7379
  26   1.0000      -7.960383      -216.6130
  27   1.0000      -7.959752      -216.5959
  28   1.0000      -7.959652      -216.5932
  29   1.0000      -4.565181      -124.2249
  30   1.0000      -3.177756       -86.4711
  31   1.0000      -3.177273       -86.4580
  32   1.0000      -3.176909       -86.4481
  33   1.0000      -1.353027       -36.8177
  34   1.0000      -1.197942       -32.5977
  35   1.0000      -1.093784       -29.7634
  36   1.0000      -1.044218       -28.4146
  37   1.0000      -1.040371       -28.3099
  38   1.0000      -1.037693       -28.2370
  39   1.0000      -1.034190       -28.1417
  40   1.0000      -1.020071       -27.7575
  41   1.0000      -0.963998       -26.2317
  42   1.0000      -0.931721       -25.3534
  43   1.0000      -0.903921       -24.5969
  44   1.0000      -0.894998       -24.3541
  45   1.0000      -0.894620       -24.3439
  46   1.0000      -0.887705       -24.1557
  47   1.0000      -0.886861       -24.1327
  48   1.0000      -0.805368       -21.9152
  49   1.0000      -0.761440       -20.7198
  50   1.0000      -0.713338       -19.4109
  51   1.0000      -0.691318       -18.8117
  52   1.0000      -0.680702       -18.5228
  53   1.0000      -0.643388       -17.5075
  54   1.0000      -0.637742       -17.3538
  55   1.0000      -0.622337       -16.9346
  56   1.0000      -0.607998       -16.5445
  57   1.0000      -0.598270       -16.2798
  58   1.0000      -0.590848       -16.0778
  59   1.0000      -0.587345       -15.9825
  60   1.0000      -0.573786       -15.6135
  61   1.0000      -0.554829       -15.0977
  62   1.0000      -0.551830       -15.0161
  63   1.0000      -0.537444       -14.6246
  64   1.0000      -0.525630       -14.3031
  65   1.0000      -0.520250       -14.1567
  66   1.0000      -0.501878       -13.6568
  67   1.0000      -0.464608       -12.6426
  68   1.0000      -0.463830       -12.6215
  69   1.0000      -0.443003       -12.0547
  70   1.0000      -0.432473       -11.7682
  71   1.0000      -0.421497       -11.4695
  72   1.0000      -0.418144       -11.3783
  73   1.0000      -0.414827       -11.2880
  74   1.0000      -0.410705       -11.1759
  75   1.0000      -0.409539       -11.1441
  76   1.0000      -0.407740       -11.0952
  77   0.0000      -0.004506        -0.1226
  78   0.0000       0.004268         0.1161
  79   0.0000       0.018830         0.5124
  80   0.0000       0.019528         0.5314
  81   0.0000       0.030124         0.8197

                 SPIN DOWN ORBITALS
  NO   OCC          E(Eh)            E(eV)
   0   1.0000    -261.538230     -7116.8171
   1   1.0000    -104.771618     -2850.9807
   2   1.0000    -104.771386     -2850.9744
   3   1.0000    -104.765674     -2850.8189
   4   1.0000     -32.047630      -872.0603
   5   1.0000     -27.525861      -749.0168
   6   1.0000     -27.525565      -749.0087
   7   1.0000     -27.524880      -748.9901
   8   1.0000     -20.525806      -558.5356
   9   1.0000     -11.414298      -310.5988
  10   1.0000     -11.336885      -308.4923
  11   1.0000     -11.298253      -307.4411
  12   1.0000     -11.292703      -307.2901
  13   1.0000     -11.277690      -306.8815
  14   1.0000     -11.255772      -306.2851
  15   1.0000     -11.238576      -305.8172
  16   1.0000     -11.229619      -305.5735
  17   1.0000     -10.498105      -285.6680
  18   1.0000     -10.497759      -285.6585
  19   1.0000     -10.492118      -285.5050
  20   1.0000      -7.963951      -216.7101
  21   1.0000      -7.963600      -216.7006
  22   1.0000      -7.963527      -216.6986
  23   1.0000      -7.963474      -216.6971
  24   1.0000      -7.963248      -216.6910
  25   1.0000      -7.963139      -216.6880
  26   1.0000      -7.958153      -216.5523
  27   1.0000      -7.957330      -216.5300
  28   1.0000      -7.957260      -216.5280
  29   1.0000      -4.123101      -112.1953
  30   1.0000      -2.645131       -71.9777
  31   1.0000      -2.644921       -71.9720
  32   1.0000      -2.644153       -71.9511
  33   1.0000      -1.335597       -36.3435
  34   1.0000      -1.196677       -32.5632
  35   1.0000      -1.090991       -29.6874
  36   1.0000      -1.040588       -28.3158
  37   1.0000      -1.029141       -28.0043
  38   1.0000      -1.020538       -27.7703
  39   1.0000      -1.018508       -27.7150
  40   1.0000      -1.014030       -27.5932
  41   1.0000      -0.963164       -26.2090
  42   1.0000      -0.930400       -25.3175
  43   1.0000      -0.809018       -22.0145
  44   1.0000      -0.768695       -20.9173
  45   1.0000      -0.714317       -19.4376
  46   1.0000      -0.690924       -18.8010
  47   1.0000      -0.681197       -18.5363
  48   1.0000      -0.643240       -17.5035
  49   1.0000      -0.639978       -17.4147
  50   1.0000      -0.620129       -16.8746
  51   1.0000      -0.608091       -16.5470
  52   1.0000      -0.598725       -16.2921
  53   1.0000      -0.589790       -16.0490
  54   1.0000      -0.586974       -15.9724
  55   1.0000      -0.572131       -15.5685
  56   1.0000      -0.554783       -15.0964
  57   1.0000      -0.549401       -14.9500
  58   1.0000      -0.536405       -14.5963
  59   1.0000      -0.520414       -14.1612
  60   1.0000      -0.518900       -14.1200
  61   1.0000      -0.497086       -13.5264
  62   1.0000      -0.465607       -12.6698
  63   1.0000      -0.462438       -12.5836
  64   1.0000      -0.447807       -12.1854
  65   1.0000      -0.441561       -12.0155
  66   1.0000      -0.433352       -11.7921
  67   1.0000      -0.428954       -11.6724
  68   1.0000      -0.426990       -11.6190
  69   1.0000      -0.407878       -11.0989
  70   1.0000      -0.398358       -10.8399
  71   1.0000      -0.397064       -10.8047
  72   0.0000      -0.004698        -0.1278
  73   0.0000       0.004265         0.1161
  74   0.0000       0.018820         0.5121
  75   0.0000       0.019513         0.5310
  76   0.0000       0.030151         0.8205

E(0)                                       ...  -3028.427000298
E(0)                                       ...  -3028.427000298
E(CORR)(strong-pairs)                      ...     -2.870290980
E(CORR)(weak-pairs)                        ...     -0.035957754
E(CORR)(corrected)                         ...     -2.906248734
E(TOT)                                     ...  -3031.333249032
E(CCSD(T))                                 ...  -3031.450696854
FINAL SINGLE POINT ENERGY     -3031.450696854331

DIPOLE MOMENT
-------------
                                X             Y             Z
Electronic contribution:     38.43954       6.54578       1.63913
Nuclear contribution   :    -43.58019      -6.13408      -1.98801
                        -----------------------------------------
Total Dipole Moment    :     -5.14065       0.41170      -0.34888
                        -----------------------------------------
Magnitude (a.u.)       :      5.16890
Magnitude (Debye)      :     13.13829

Rotational constants in cm-1:     0.018864     0.012036     0.010968
Rotational constants in MHz :   565.535641   360.840345   328.813924

                             ****ORCA TERMINATED NORMALLY****
TOTAL RUN TIME: 0 days 20 hours 49 minutes 18 seconds 401 msec
