                         Program Version 4.1.2  - RELEASE  -
|  1> ! aug-cc-pVTZ aug-cc-pVTZ/C DLPNO-CCSD(T1) TightSCF NormalPNO UNO MiniPrint AutoAux
|  2> %pal nproc 10 end
|  3> %maxcore 20000
|  4> %mdci
|  5>      density none
|  6> end
|  7>
|  8> * xyz 0 6
|  9>  O     -0.45606700     -0.13000700     -0.49544400
| 10>  C     -1.50407800     -1.15190000     -0.31407500
| 11>  C     -2.72282700     -0.11675900     -0.25806500
| 12>  C     -1.84591100      1.14433000     -0.26223200
| 13>  C     -1.78194800      1.96025800     -1.50818100
| 14> Fe      1.37245700      0.02480300      0.03193900
| 15> Cl      1.91375100      1.96169400     -0.86489500
| 16>  C     -1.53071300      1.84337300      1.01710300
| 17> Cl      2.33790700     -1.76745800     -0.77160000
| 18> Cl      1.42384500      0.12329300      2.23300200
| 19>  H     -3.26318700     -0.16521800     -1.20896700
| 20>  H     -2.39772300      2.47032000      1.27275500
| 21>  H     -1.35100200      1.15528200      1.84300000
| 22>  H     -0.66324700      2.49744700      0.90039100
| 23>  H     -2.62192100      2.67133800     -1.48459900
| 24>  H     -0.85024400      2.52976200     -1.55505200
| 25>  H     -1.88086900      1.34113200     -2.40158400
| 26>  C     -3.72373500     -0.25087300      0.88459700
| 27>  H     -4.47488900      0.54557600      0.83978800
| 28>  H     -4.25284300     -1.20564000      0.80412100
| 29>  H     -3.24829300     -0.21434800      1.86753500
| 30>  C     -1.26163400     -1.94500300      0.95911400
| 31>  H     -2.08098000     -2.65092400      1.13037700
| 32>  H     -0.33520600     -2.51986500      0.85916700
| 33>  H     -1.16023200     -1.30039900      1.83431400
| 34>  C     -1.52338100     -2.04253800     -1.54414400
| 35>  H     -0.57472000     -2.58200500     -1.62679100
| 36>  H     -2.33759100     -2.77308700     -1.47466800
| 37>  H     -1.66056900     -1.44750500     -2.45195400
| 38> *
| 39>
| 40>
| 41>                          ****END OF INPUT****

CARTESIAN COORDINATES (ANGSTROEM)
---------------------------------
  O     -0.456067   -0.130007   -0.495444
  C     -1.504078   -1.151900   -0.314075
  C     -2.722827   -0.116759   -0.258065
  C     -1.845911    1.144330   -0.262232
  C     -1.781948    1.960258   -1.508181
  Fe     1.372457    0.024803    0.031939
  Cl     1.913751    1.961694   -0.864895
  C     -1.530713    1.843373    1.017103
  Cl     2.337907   -1.767458   -0.771600
  Cl     1.423845    0.123293    2.233002
  H     -3.263187   -0.165218   -1.208967
  H     -2.397723    2.470320    1.272755
  H     -1.351002    1.155282    1.843000
  H     -0.663247    2.497447    0.900391
  H     -2.621921    2.671338   -1.484599
  H     -0.850244    2.529762   -1.555052
  H     -1.880869    1.341132   -2.401584
  C     -3.723735   -0.250873    0.884597
  H     -4.474889    0.545576    0.839788
  H     -4.252843   -1.205640    0.804121
  H     -3.248293   -0.214348    1.867535
  C     -1.261634   -1.945003    0.959114
  H     -2.080980   -2.650924    1.130377
  H     -0.335206   -2.519865    0.859167
  H     -1.160232   -1.300399    1.834314
  C     -1.523381   -2.042538   -1.544144
  H     -0.574720   -2.582005   -1.626791
  H     -2.337591   -2.773087   -1.474668
  H     -1.660569   -1.447505   -2.451954

ORBITAL ENERGIES
----------------
                 SPIN UP ORBITALS
  NO   OCC          E(Eh)            E(eV)
   0   1.0000    -261.556486     -7117.3138
   1   1.0000    -104.781442     -2851.2480
   2   1.0000    -104.779580     -2851.1973
   3   1.0000    -104.778678     -2851.1728
   4   1.0000     -32.224405      -876.8706
   5   1.0000     -27.700493      -753.7687
   6   1.0000     -27.699980      -753.7548
   7   1.0000     -27.699747      -753.7484
   8   1.0000     -20.582479      -560.0777
   9   1.0000     -11.390495      -309.9511
  10   1.0000     -11.333042      -308.3877
  11   1.0000     -11.288130      -307.1656
  12   1.0000     -11.270447      -306.6845
  13   1.0000     -11.269908      -306.6698
  14   1.0000     -11.260810      -306.4222
  15   1.0000     -11.237722      -305.7939
  16   1.0000     -11.237427      -305.7859
  17   1.0000     -10.508091      -285.9397
  18   1.0000     -10.506294      -285.8908
  19   1.0000     -10.505335      -285.8647
  20   1.0000      -7.974914      -217.0084
  21   1.0000      -7.974188      -216.9887
  22   1.0000      -7.974117      -216.9868
  23   1.0000      -7.973168      -216.9609
  24   1.0000      -7.972348      -216.9386
  25   1.0000      -7.972325      -216.9380
  26   1.0000      -7.972134      -216.9328
  27   1.0000      -7.971453      -216.9143
  28   1.0000      -7.971390      -216.9125
  29   1.0000      -4.579680      -124.6194
  30   1.0000      -3.192234       -86.8651
  31   1.0000      -3.191650       -86.8492
  32   1.0000      -3.191184       -86.8365
  33   1.0000      -1.371100       -37.3095
  34   1.0000      -1.155879       -31.4531
  35   1.0000      -1.096237       -29.8301
  36   1.0000      -1.053884       -28.6776
  37   1.0000      -1.048114       -28.5206
  38   1.0000      -1.046700       -28.4822
  39   1.0000      -1.032800       -28.1039
  40   1.0000      -1.003487       -27.3063
  41   1.0000      -0.966177       -26.2910
  42   1.0000      -0.935691       -25.4615
  43   1.0000      -0.908984       -24.7347
  44   1.0000      -0.908826       -24.7304
  45   1.0000      -0.904277       -24.6066
  46   1.0000      -0.899938       -24.4886
  47   1.0000      -0.899216       -24.4689
  48   1.0000      -0.804336       -21.8871
  49   1.0000      -0.755651       -20.5623
  50   1.0000      -0.693734       -18.8775
  51   1.0000      -0.689731       -18.7685
  52   1.0000      -0.671257       -18.2658
  53   1.0000      -0.634521       -17.2662
  54   1.0000      -0.629754       -17.1365
  55   1.0000      -0.615511       -16.7489
  56   1.0000      -0.598965       -16.2987
  57   1.0000      -0.592974       -16.1356
  58   1.0000      -0.586966       -15.9722
  59   1.0000      -0.583856       -15.8875
  60   1.0000      -0.567115       -15.4320
  61   1.0000      -0.560060       -15.2400
  62   1.0000      -0.542848       -14.7716
  63   1.0000      -0.534131       -14.5344
  64   1.0000      -0.530449       -14.4343
  65   1.0000      -0.519530       -14.1371
  66   1.0000      -0.503785       -13.7087
  67   1.0000      -0.480954       -13.0874
  68   1.0000      -0.472713       -12.8632
  69   1.0000      -0.460117       -12.5204
  70   1.0000      -0.453177       -12.3316
  71   1.0000      -0.432041       -11.7564
  72   1.0000      -0.428117       -11.6496
  73   1.0000      -0.425124       -11.5682
  74   1.0000      -0.420635       -11.4461
  75   1.0000      -0.418294       -11.3823
  76   1.0000      -0.417638       -11.3645
  77   0.0000       0.009449         0.2571
  78   0.0000       0.021262         0.5786
  79   0.0000       0.023472         0.6387
  80   0.0000       0.031103         0.8463
  81   0.0000       0.038165         1.0385

                 SPIN DOWN ORBITALS
  NO   OCC          E(Eh)            E(eV)
   0   1.0000    -261.552931     -7117.2171
   1   1.0000    -104.780040     -2851.2098
   2   1.0000    -104.778141     -2851.1582
   3   1.0000    -104.777190     -2851.1323
   4   1.0000     -32.062446      -872.4635
   5   1.0000     -27.540427      -749.4131
   6   1.0000     -27.540308      -749.4099
   7   1.0000     -27.539969      -749.4007
   8   1.0000     -20.577751      -559.9491
   9   1.0000     -11.390507      -309.9514
  10   1.0000     -11.332872      -308.3831
  11   1.0000     -11.288061      -307.1637
  12   1.0000     -11.270433      -306.6841
  13   1.0000     -11.269919      -306.6701
  14   1.0000     -11.260789      -306.4216
  15   1.0000     -11.237698      -305.7933
  16   1.0000     -11.237422      -305.7858
  17   1.0000     -10.506588      -285.8988
  18   1.0000     -10.504751      -285.8488
  19   1.0000     -10.503746      -285.8215
  20   1.0000      -7.972546      -216.9440
  21   1.0000      -7.971854      -216.9252
  22   1.0000      -7.971794      -216.9235
  23   1.0000      -7.970656      -216.8926
  24   1.0000      -7.970019      -216.8752
  25   1.0000      -7.969961      -216.8737
  26   1.0000      -7.969721      -216.8671
  27   1.0000      -7.968917      -216.8453
  28   1.0000      -7.968869      -216.8439
  29   1.0000      -4.137621      -112.5904
  30   1.0000      -2.659498       -72.3686
  31   1.0000      -2.659355       -72.3647
  32   1.0000      -2.658411       -72.3390
  33   1.0000      -1.359076       -36.9823
  34   1.0000      -1.153524       -31.3890
  35   1.0000      -1.094089       -29.7717
  36   1.0000      -1.038832       -28.2680
  37   1.0000      -1.031878       -28.0788
  38   1.0000      -1.027316       -27.9547
  39   1.0000      -1.025563       -27.9070
  40   1.0000      -1.003192       -27.2982
  41   1.0000      -0.965506       -26.2728
  42   1.0000      -0.926356       -25.2074
  43   1.0000      -0.805672       -21.9235
  44   1.0000      -0.759061       -20.6551
  45   1.0000      -0.693697       -18.8764
  46   1.0000      -0.689678       -18.7671
  47   1.0000      -0.671994       -18.2859
  48   1.0000      -0.634894       -17.2763
  49   1.0000      -0.629678       -17.1344
  50   1.0000      -0.614324       -16.7166
  51   1.0000      -0.598860       -16.2958
  52   1.0000      -0.592260       -16.1162
  53   1.0000      -0.586391       -15.9565
  54   1.0000      -0.582835       -15.8597
  55   1.0000      -0.567024       -15.4295
  56   1.0000      -0.559513       -15.2251
  57   1.0000      -0.537594       -14.6287
  58   1.0000      -0.533969       -14.5300
  59   1.0000      -0.528374       -14.3778
  60   1.0000      -0.513239       -13.9659
  61   1.0000      -0.505178       -13.7466
  62   1.0000      -0.478029       -13.0078
  63   1.0000      -0.473364       -12.8809
  64   1.0000      -0.468420       -12.7464
  65   1.0000      -0.458783       -12.4841
  66   1.0000      -0.442870       -12.0511
  67   1.0000      -0.439905       -11.9704
  68   1.0000      -0.437094       -11.8939
  69   1.0000      -0.419408       -11.4127
  70   1.0000      -0.414763       -11.2863
  71   1.0000      -0.404267       -11.0007
  72   0.0000       0.009438         0.2568
  73   0.0000       0.021195         0.5768
  74   0.0000       0.023450         0.6381
  75   0.0000       0.031149         0.8476
  76   0.0000       0.038167         1.0386

E(0)                                       ...  -3028.453373456
E(0)                                       ...  -3028.453373456
E(CORR)(strong-pairs)                      ...     -2.876729280
E(CORR)(weak-pairs)                        ...     -0.035363125
E(CORR)(corrected)                         ...     -2.912092405
E(TOT)                                     ...  -3031.365465861
E(CCSD(T))                                 ...  -3031.484323546
FINAL SINGLE POINT ENERGY     -3031.484323545844

DIPOLE MOMENT
-------------
                                X             Y             Z
Electronic contribution:     40.51836       2.56948       1.44288
Nuclear contribution   :    -44.83442      -2.11915      -1.76863
                        -----------------------------------------
Total Dipole Moment    :     -4.31606       0.45034      -0.32575
                        -----------------------------------------
Magnitude (a.u.)       :      4.35170
Magnitude (Debye)      :     11.06114

Rotational constants in cm-1:     0.019048     0.012161     0.010854
Rotational constants in MHz :   571.038998   364.567154   325.392040

                             ****ORCA TERMINATED NORMALLY****
TOTAL RUN TIME: 0 days 21 hours 52 minutes 2 seconds 477 msec
