                         Program Version 4.1.2  - RELEASE  -
|  1> ! aug-cc-pVTZ aug-cc-pVTZ/C DLPNO-CCSD(T1) TightSCF NormalPNO UNO MiniPrint AutoAux
|  2> %pal nproc 10 end
|  3> %maxcore 20000
|  4> %mdci
|  5>      density none
|  6> end
|  7>
|  8> * xyz 0 6
|  9>  O     -0.29472200     -0.19258400     -0.71768900
| 10>  C     -1.13485500     -1.13396200     -0.60771300
| 11>  C     -3.16443000     -0.01457500      0.18620000
| 12>  C     -2.40749400      1.03976400     -0.20044600
| 13>  C     -2.45319100      1.57132800     -1.60243200
| 14> Fe      1.46646600      0.09370500      0.04970100
| 15> Cl      2.10131700      1.99365800     -0.81467700
| 16>  C     -1.56590800      1.84388500      0.74462600
| 17> Cl      2.52209600     -1.69778100     -0.64954100
| 18> Cl      1.29210800      0.12564200      2.24134300
| 19>  H     -3.82013000     -0.45701200     -0.56202100
| 20>  H     -2.14764900      2.71504200      1.07752700
| 21>  H     -1.25410800      1.29472700      1.63336300
| 22>  H     -0.67419100      2.23334900      0.24450900
| 23>  H     -2.74517300      2.62907600     -1.57653100
| 24>  H     -1.45714500      1.53322900     -2.05910900
| 25>  H     -3.16987300      1.04006300     -2.23429800
| 26>  C     -3.43231300     -0.44015100      1.60465300
| 27>  H     -4.33880700      0.05889300      1.97338600
| 28>  H     -3.61478100     -1.51671700      1.67962400
| 29>  H     -2.62084400     -0.18315900      2.28977100
| 30>  C     -1.05134200     -2.07193700      0.55821300
| 31>  H     -1.94022100     -2.69462300      0.65863100
| 32>  H     -0.19235300     -2.72668600      0.34608100
| 33>  H     -0.83348100     -1.54760100      1.48884200
| 34>  C     -1.76904900     -1.64051900     -1.87197800
| 35>  H     -1.02578400     -2.31801000     -2.31781000
| 36>  H     -2.68118900     -2.20922100     -1.68646500
| 37>  H     -1.94697400     -0.83584800     -2.58407800
| 38> *
| 39>
| 40>
| 41>                          ****END OF INPUT****

CARTESIAN COORDINATES (ANGSTROEM)
---------------------------------
  O     -0.294722   -0.192584   -0.717689
  C     -1.134855   -1.133962   -0.607713
  C     -3.164430   -0.014575    0.186200
  C     -2.407494    1.039764   -0.200446
  C     -2.453191    1.571328   -1.602432
  Fe     1.466466    0.093705    0.049701
  Cl     2.101317    1.993658   -0.814677
  C     -1.565908    1.843885    0.744626
  Cl     2.522096   -1.697781   -0.649541
  Cl     1.292108    0.125642    2.241343
  H     -3.820130   -0.457012   -0.562021
  H     -2.147649    2.715042    1.077527
  H     -1.254108    1.294727    1.633363
  H     -0.674191    2.233349    0.244509
  H     -2.745173    2.629076   -1.576531
  H     -1.457145    1.533229   -2.059109
  H     -3.169873    1.040063   -2.234298
  C     -3.432313   -0.440151    1.604653
  H     -4.338807    0.058893    1.973386
  H     -3.614781   -1.516717    1.679624
  H     -2.620844   -0.183159    2.289771
  C     -1.051342   -2.071937    0.558213
  H     -1.940221   -2.694623    0.658631
  H     -0.192353   -2.726686    0.346081
  H     -0.833481   -1.547601    1.488842
  C     -1.769049   -1.640519   -1.871978
  H     -1.025784   -2.318010   -2.317810
  H     -2.681189   -2.209221   -1.686465
  H     -1.946974   -0.835848   -2.584078

ORBITAL ENERGIES
----------------
                 SPIN UP ORBITALS
  NO   OCC          E(Eh)            E(eV)
   0   1.0000    -261.571300     -7117.7169
   1   1.0000    -104.789889     -2851.4778
   2   1.0000    -104.787692     -2851.4181
   3   1.0000    -104.786546     -2851.3869
   4   1.0000     -32.239040      -877.2689
   5   1.0000     -27.715430      -754.1752
   6   1.0000     -27.714434      -754.1481
   7   1.0000     -27.714280      -754.1439
   8   1.0000     -20.602786      -560.6303
   9   1.0000     -11.421005      -310.7813
  10   1.0000     -11.283604      -307.0425
  11   1.0000     -11.275029      -306.8091
  12   1.0000     -11.269513      -306.6590
  13   1.0000     -11.250235      -306.1345
  14   1.0000     -11.246169      -306.0238
  15   1.0000     -11.244904      -305.9894
  16   1.0000     -11.236558      -305.7623
  17   1.0000     -10.516573      -286.1705
  18   1.0000     -10.514336      -286.1096
  19   1.0000     -10.513145      -286.0772
  20   1.0000      -7.983417      -217.2398
  21   1.0000      -7.982645      -217.2188
  22   1.0000      -7.982601      -217.2176
  23   1.0000      -7.981220      -217.1800
  24   1.0000      -7.980431      -217.1586
  25   1.0000      -7.980352      -217.1564
  26   1.0000      -7.979938      -217.1452
  27   1.0000      -7.979267      -217.1269
  28   1.0000      -7.979209      -217.1253
  29   1.0000      -4.594062      -125.0108
  30   1.0000      -3.207164       -87.2714
  31   1.0000      -3.205567       -87.2279
  32   1.0000      -3.205370       -87.2226
  33   1.0000      -1.453503       -39.5518
  34   1.0000      -1.137346       -30.9487
  35   1.0000      -1.098451       -29.8904
  36   1.0000      -1.062905       -28.9231
  37   1.0000      -1.057429       -28.7741
  38   1.0000      -1.055149       -28.7121
  39   1.0000      -1.025929       -27.9169
  40   1.0000      -1.009706       -27.4755
  41   1.0000      -0.965757       -26.2796
  42   1.0000      -0.939267       -25.5588
  43   1.0000      -0.923188       -25.1212
  44   1.0000      -0.923047       -25.1174
  45   1.0000      -0.912491       -24.8301
  46   1.0000      -0.912314       -24.8253
  47   1.0000      -0.904876       -24.6229
  48   1.0000      -0.807993       -21.9866
  49   1.0000      -0.737288       -20.0626
  50   1.0000      -0.706200       -19.2167
  51   1.0000      -0.698747       -19.0139
  52   1.0000      -0.689484       -18.7618
  53   1.0000      -0.661632       -18.0039
  54   1.0000      -0.628583       -17.1046
  55   1.0000      -0.620605       -16.8875
  56   1.0000      -0.603198       -16.4139
  57   1.0000      -0.600618       -16.3437
  58   1.0000      -0.584399       -15.9023
  59   1.0000      -0.578696       -15.7471
  60   1.0000      -0.561728       -15.2854
  61   1.0000      -0.559022       -15.2118
  62   1.0000      -0.553061       -15.0496
  63   1.0000      -0.543587       -14.7917
  64   1.0000      -0.534549       -14.5458
  65   1.0000      -0.528018       -14.3681
  66   1.0000      -0.501571       -13.6484
  67   1.0000      -0.497592       -13.5402
  68   1.0000      -0.474957       -12.9242
  69   1.0000      -0.471230       -12.8228
  70   1.0000      -0.443479       -12.0677
  71   1.0000      -0.437543       -11.9062
  72   1.0000      -0.436142       -11.8680
  73   1.0000      -0.427562       -11.6346
  74   1.0000      -0.425983       -11.5916
  75   1.0000      -0.425644       -11.5824
  76   1.0000      -0.363588        -9.8937
  77   0.0000       0.012544         0.3414
  78   0.0000       0.023399         0.6367
  79   0.0000       0.023663         0.6439
  80   0.0000       0.030400         0.8272
  81   0.0000       0.039373         1.0714

                 SPIN DOWN ORBITALS
  NO   OCC          E(Eh)            E(eV)
   0   1.0000    -261.567733     -7117.6199
   1   1.0000    -104.788413     -2851.4377
   2   1.0000    -104.786173     -2851.3767
   3   1.0000    -104.785030     -2851.3456
   4   1.0000     -32.077035      -872.8605
   5   1.0000     -27.554960      -749.8086
   6   1.0000     -27.554902      -749.8070
   7   1.0000     -27.554718      -749.8020
   8   1.0000     -20.599039      -560.5284
   9   1.0000     -11.420855      -310.7773
  10   1.0000     -11.283657      -307.0439
  11   1.0000     -11.274926      -306.8063
  12   1.0000     -11.269506      -306.6589
  13   1.0000     -11.250076      -306.1301
  14   1.0000     -11.246186      -306.0243
  15   1.0000     -11.244892      -305.9891
  16   1.0000     -11.236571      -305.7626
  17   1.0000     -10.514994      -286.1275
  18   1.0000     -10.512712      -286.0654
  19   1.0000     -10.511533      -286.0334
  20   1.0000      -7.980904      -217.1714
  21   1.0000      -7.980205      -217.1524
  22   1.0000      -7.980151      -217.1509
  23   1.0000      -7.978587      -217.1084
  24   1.0000      -7.977943      -217.0909
  25   1.0000      -7.977843      -217.0881
  26   1.0000      -7.977521      -217.0794
  27   1.0000      -7.976673      -217.0563
  28   1.0000      -7.976590      -217.0540
  29   1.0000      -4.151881      -112.9784
  30   1.0000      -2.673457       -72.7485
  31   1.0000      -2.673412       -72.7472
  32   1.0000      -2.672976       -72.7354
  33   1.0000      -1.444093       -39.2958
  34   1.0000      -1.136910       -30.9369
  35   1.0000      -1.095974       -29.8230
  36   1.0000      -1.047572       -28.5059
  37   1.0000      -1.035217       -28.1697
  38   1.0000      -1.033155       -28.1136
  39   1.0000      -1.025486       -27.9049
  40   1.0000      -1.008927       -27.4543
  41   1.0000      -0.965629       -26.2761
  42   1.0000      -0.905285       -24.6341
  43   1.0000      -0.821395       -22.3513
  44   1.0000      -0.737336       -20.0639
  45   1.0000      -0.708914       -19.2905
  46   1.0000      -0.698081       -18.9958
  47   1.0000      -0.688339       -18.7307
  48   1.0000      -0.661573       -18.0023
  49   1.0000      -0.628480       -17.1018
  50   1.0000      -0.620161       -16.8755
  51   1.0000      -0.602940       -16.4068
  52   1.0000      -0.600572       -16.3424
  53   1.0000      -0.584042       -15.8926
  54   1.0000      -0.578095       -15.7308
  55   1.0000      -0.561325       -15.2744
  56   1.0000      -0.558829       -15.2065
  57   1.0000      -0.550402       -14.9772
  58   1.0000      -0.543519       -14.7899
  59   1.0000      -0.533358       -14.5134
  60   1.0000      -0.518553       -14.1105
  61   1.0000      -0.501622       -13.6498
  62   1.0000      -0.497665       -13.5422
  63   1.0000      -0.481254       -13.0956
  64   1.0000      -0.479870       -13.0579
  65   1.0000      -0.450805       -12.2670
  66   1.0000      -0.447650       -12.1812
  67   1.0000      -0.445198       -12.1144
  68   1.0000      -0.429406       -11.6847
  69   1.0000      -0.426399       -11.6029
  70   1.0000      -0.410884       -11.1807
  71   1.0000      -0.362547        -9.8654
  72   0.0000       0.012532         0.3410
  73   0.0000       0.023372         0.6360
  74   0.0000       0.023639         0.6433
  75   0.0000       0.030374         0.8265
  76   0.0000       0.039292         1.0692

E(0)                                       ...  -3028.447513579
E(0)                                       ...  -3028.447513579
E(CORR)(strong-pairs)                      ...     -2.870193587
E(CORR)(weak-pairs)                        ...     -0.036303824
E(CORR)(corrected)                         ...     -2.906497411
E(TOT)                                     ...  -3031.354010991
E(CCSD(T))                                 ...  -3031.472692196
FINAL SINGLE POINT ENERGY     -3031.472692195682

DIPOLE MOMENT
-------------
                                X             Y             Z
Electronic contribution:     43.13539       2.81042       2.23219
Nuclear contribution   :    -46.77083      -3.80507      -2.83456
                        -----------------------------------------
Total Dipole Moment    :     -3.63543      -0.99465      -0.60236
                        -----------------------------------------
Magnitude (a.u.)       :      3.81688
Magnitude (Debye)      :      9.70173

Rotational constants in cm-1:     0.019251     0.010935     0.010301
Rotational constants in MHz :   577.131148   327.818230   308.828993

                             ****ORCA TERMINATED NORMALLY****
TOTAL RUN TIME: 0 days 18 hours 54 minutes 9 seconds 296 msec
