                         Program Version 4.1.2  - RELEASE  -
|  1> ! aug-cc-pVTZ aug-cc-pVTZ/C DLPNO-CCSD(T1) TightSCF NormalPNO UNO MiniPrint AutoAux
|  2> %pal nproc 10 end
|  3> %maxcore 20000
|  4> %mdci
|  5>      density none
|  6> end
|  7>
|  8> * xyz 0 6
|  9>  O      0.22002100      0.43519000     -0.83267700
| 10>  C      0.91810800      1.44557100     -0.60971500
| 11>  C      3.21676500     -0.04220500      0.48809800
| 12>  C      2.59592200     -0.94488300     -0.29374000
| 13>  C      2.92459000     -1.06752400     -1.75879900
| 14> Fe     -1.46679800     -0.17167700      0.03312900
| 15> Cl     -2.07766000     -1.92524900     -1.09211900
| 16>  C      1.64391900     -1.99288500      0.20976600
| 17> Cl     -2.69608600      1.61338600     -0.27850000
| 18> Cl     -1.07690300     -0.52316100      2.15990200
| 19>  H      3.95446400      0.60696600      0.01332800
| 20>  H      2.13963200     -2.97340100      0.19304000
| 21>  H      1.28990900     -1.81598000      1.22523900
| 22>  H      0.77392100     -2.08433500     -0.45023200
| 23>  H      3.34982600     -2.05781800     -1.96920200
| 24>  H      2.01718900     -0.98624300     -2.37080000
| 25>  H      3.64745100     -0.31538500     -2.08941400
| 26>  C      3.09130900      0.11406400      1.97814300
| 27>  H      3.95048900     -0.34199400      2.48916800
| 28>  H      3.08453700      1.17146400      2.26848400
| 29>  H      2.18645400     -0.34967100      2.37932400
| 30>  C      0.79995400      2.20934200      0.66959600
| 31>  H      1.66740500      2.84811600      0.84271800
| 32>  H     -0.09303300      2.84552700      0.58005900
| 33>  H      0.63754200      1.53952900      1.51548100
| 34>  C      1.72719200      2.02689100     -1.72473500
| 35>  H      1.21240200      2.94318500     -2.04848600
| 36>  H      2.72251400      2.31668700     -1.38065500
| 37>  H      1.79036300      1.34060700     -2.56748800
| 38> *
| 39>
| 40>
| 41>                          ****END OF INPUT****

CARTESIAN COORDINATES (ANGSTROEM)
---------------------------------
  O      0.220021    0.435190   -0.832677
  C      0.918108    1.445571   -0.609715
  C      3.216765   -0.042205    0.488098
  C      2.595922   -0.944883   -0.293740
  C      2.924590   -1.067524   -1.758799
  Fe    -1.466798   -0.171677    0.033129
  Cl    -2.077660   -1.925249   -1.092119
  C      1.643919   -1.992885    0.209766
  Cl    -2.696086    1.613386   -0.278500
  Cl    -1.076903   -0.523161    2.159902
  H      3.954464    0.606966    0.013328
  H      2.139632   -2.973401    0.193040
  H      1.289909   -1.815980    1.225239
  H      0.773921   -2.084335   -0.450232
  H      3.349826   -2.057818   -1.969202
  H      2.017189   -0.986243   -2.370800
  H      3.647451   -0.315385   -2.089414
  C      3.091309    0.114064    1.978143
  H      3.950489   -0.341994    2.489168
  H      3.084537    1.171464    2.268484
  H      2.186454   -0.349671    2.379324
  C      0.799954    2.209342    0.669596
  H      1.667405    2.848116    0.842718
  H     -0.093033    2.845527    0.580059
  H      0.637542    1.539529    1.515481
  C      1.727192    2.026891   -1.724735
  H      1.212402    2.943185   -2.048486
  H      2.722514    2.316687   -1.380655
  H      1.790363    1.340607   -2.567488

ORBITAL ENERGIES
----------------
                 SPIN UP ORBITALS
  NO   OCC          E(Eh)            E(eV)
   0   1.0000    -261.580103     -7117.9565
   1   1.0000    -104.796223     -2851.6502
   2   1.0000    -104.793468     -2851.5752
   3   1.0000    -104.791755     -2851.5286
   4   1.0000     -32.247722      -877.5051
   5   1.0000     -27.724287      -754.4162
   6   1.0000     -27.723017      -754.3817
   7   1.0000     -27.722829      -754.3765
   8   1.0000     -20.628326      -561.3253
   9   1.0000     -11.422699      -310.8274
  10   1.0000     -11.280359      -306.9542
  11   1.0000     -11.274227      -306.7873
  12   1.0000     -11.256302      -306.2996
  13   1.0000     -11.237519      -305.7884
  14   1.0000     -11.236506      -305.7609
  15   1.0000     -11.234373      -305.7028
  16   1.0000     -11.224681      -305.4391
  17   1.0000     -10.522958      -286.3443
  18   1.0000     -10.520183      -286.2687
  19   1.0000     -10.518413      -286.2206
  20   1.0000      -7.989775      -217.4128
  21   1.0000      -7.989053      -217.3932
  22   1.0000      -7.988990      -217.3915
  23   1.0000      -7.987088      -217.3397
  24   1.0000      -7.986268      -217.3174
  25   1.0000      -7.986213      -217.3159
  26   1.0000      -7.985189      -217.2880
  27   1.0000      -7.984541      -217.2704
  28   1.0000      -7.984503      -217.2694
  29   1.0000      -4.602429      -125.2384
  30   1.0000      -3.215599       -87.5009
  31   1.0000      -3.213735       -87.4502
  32   1.0000      -3.213649       -87.4478
  33   1.0000      -1.472971       -40.0816
  34   1.0000      -1.117426       -30.4067
  35   1.0000      -1.104759       -30.0620
  36   1.0000      -1.069961       -29.1151
  37   1.0000      -1.064196       -28.9582
  38   1.0000      -1.061734       -28.8913
  39   1.0000      -1.020676       -27.7740
  40   1.0000      -1.008261       -27.4362
  41   1.0000      -0.952729       -25.9251
  42   1.0000      -0.945604       -25.7312
  43   1.0000      -0.931251       -25.3406
  44   1.0000      -0.931104       -25.3366
  45   1.0000      -0.920062       -25.0362
  46   1.0000      -0.919448       -25.0194
  47   1.0000      -0.890036       -24.2191
  48   1.0000      -0.818209       -22.2646
  49   1.0000      -0.722623       -19.6636
  50   1.0000      -0.716981       -19.5100
  51   1.0000      -0.707397       -19.2493
  52   1.0000      -0.685903       -18.6644
  53   1.0000      -0.648479       -17.6460
  54   1.0000      -0.622108       -16.9284
  55   1.0000      -0.615331       -16.7440
  56   1.0000      -0.603049       -16.4098
  57   1.0000      -0.600173       -16.3315
  58   1.0000      -0.586851       -15.9690
  59   1.0000      -0.579868       -15.7790
  60   1.0000      -0.561206       -15.2712
  61   1.0000      -0.548797       -14.9335
  62   1.0000      -0.546734       -14.8774
  63   1.0000      -0.537068       -14.6144
  64   1.0000      -0.534630       -14.5480
  65   1.0000      -0.521701       -14.1962
  66   1.0000      -0.507189       -13.8013
  67   1.0000      -0.487188       -13.2571
  68   1.0000      -0.479628       -13.0513
  69   1.0000      -0.478405       -13.0181
  70   1.0000      -0.449715       -12.2374
  71   1.0000      -0.443147       -12.0587
  72   1.0000      -0.441401       -12.0111
  73   1.0000      -0.432876       -11.7791
  74   1.0000      -0.431671       -11.7464
  75   1.0000      -0.430580       -11.7167
  76   1.0000      -0.353576        -9.6213
  77   0.0000       0.012798         0.3482
  78   0.0000       0.024023         0.6537
  79   0.0000       0.025015         0.6807
  80   0.0000       0.030963         0.8425
  81   0.0000       0.039631         1.0784

                 SPIN DOWN ORBITALS
  NO   OCC          E(Eh)            E(eV)
   0   1.0000    -261.576517     -7117.8589
   1   1.0000    -104.794712     -2851.6091
   2   1.0000    -104.791902     -2851.5326
   3   1.0000    -104.790173     -2851.4856
   4   1.0000     -32.085768      -873.0981
   5   1.0000     -27.563737      -750.0474
   6   1.0000     -27.563577      -750.0431
   7   1.0000     -27.563516      -750.0414
   8   1.0000     -20.625091      -561.2373
   9   1.0000     -11.422621      -310.8253
  10   1.0000     -11.280260      -306.9515
  11   1.0000     -11.274225      -306.7872
  12   1.0000     -11.256363      -306.3012
  13   1.0000     -11.237441      -305.7863
  14   1.0000     -11.236497      -305.7606
  15   1.0000     -11.234381      -305.7030
  16   1.0000     -11.224687      -305.4392
  17   1.0000     -10.521346      -286.3004
  18   1.0000     -10.518510      -286.2232
  19   1.0000     -10.516733      -286.1749
  20   1.0000      -7.987282      -217.3450
  21   1.0000      -7.986493      -217.3235
  22   1.0000      -7.986455      -217.3225
  23   1.0000      -7.984360      -217.2655
  24   1.0000      -7.983715      -217.2479
  25   1.0000      -7.983617      -217.2453
  26   1.0000      -7.982734      -217.2212
  27   1.0000      -7.981796      -217.1957
  28   1.0000      -7.981719      -217.1936
  29   1.0000      -4.160435      -113.2112
  30   1.0000      -2.681984       -72.9805
  31   1.0000      -2.681886       -72.9778
  32   1.0000      -2.681519       -72.9679
  33   1.0000      -1.465110       -39.8677
  34   1.0000      -1.117132       -30.3987
  35   1.0000      -1.102673       -30.0053
  36   1.0000      -1.054140       -28.6846
  37   1.0000      -1.041489       -28.3404
  38   1.0000      -1.038674       -28.2638
  39   1.0000      -1.019660       -27.7464
  40   1.0000      -1.008092       -27.4316
  41   1.0000      -0.952476       -25.9182
  42   1.0000      -0.890112       -24.2212
  43   1.0000      -0.829862       -22.5817
  44   1.0000      -0.722806       -19.6685
  45   1.0000      -0.718306       -19.5461
  46   1.0000      -0.706690       -19.2300
  47   1.0000      -0.685390       -18.6504
  48   1.0000      -0.648441       -17.6450
  49   1.0000      -0.621533       -16.9128
  50   1.0000      -0.615236       -16.7414
  51   1.0000      -0.602948       -16.4070
  52   1.0000      -0.600084       -16.3291
  53   1.0000      -0.586577       -15.9616
  54   1.0000      -0.578634       -15.7454
  55   1.0000      -0.560196       -15.2437
  56   1.0000      -0.547074       -14.8866
  57   1.0000      -0.545540       -14.8449
  58   1.0000      -0.534946       -14.5566
  59   1.0000      -0.526792       -14.3347
  60   1.0000      -0.521447       -14.1893
  61   1.0000      -0.508664       -13.8414
  62   1.0000      -0.488663       -13.2972
  63   1.0000      -0.486563       -13.2401
  64   1.0000      -0.485093       -13.2000
  65   1.0000      -0.456413       -12.4196
  66   1.0000      -0.453617       -12.3436
  67   1.0000      -0.450444       -12.2572
  68   1.0000      -0.433690       -11.8013
  69   1.0000      -0.432202       -11.7608
  70   1.0000      -0.415702       -11.3118
  71   1.0000      -0.353222        -9.6117
  72   0.0000       0.012781         0.3478
  73   0.0000       0.023998         0.6530
  74   0.0000       0.024971         0.6795
  75   0.0000       0.030906         0.8410
  76   0.0000       0.039548         1.0762

E(0)                                       ...  -3028.471972355
E(0)                                       ...  -3028.471972355
E(CORR)(strong-pairs)                      ...     -2.865652556
E(CORR)(weak-pairs)                        ...     -0.034963290
E(CORR)(corrected)                         ...     -2.900615846
E(TOT)                                     ...  -3031.372588201
E(CCSD(T))                                 ...  -3031.490156323
FINAL SINGLE POINT ENERGY     -3031.490156322809

DIPOLE MOMENT
-------------
                                X             Y             Z
Electronic contribution:    -43.51968      -4.66298       1.96376
Nuclear contribution   :     46.55465       6.30687      -2.54228
                        -----------------------------------------
Total Dipole Moment    :      3.03498       1.64389      -0.57852
                        -----------------------------------------
Magnitude (a.u.)       :      3.49974
Magnitude (Debye)      :      8.89562

Rotational constants in cm-1:     0.018593     0.010700     0.010078
Rotational constants in MHz :   557.411498   320.780414   302.135271

                             ****ORCA TERMINATED NORMALLY****
TOTAL RUN TIME: 0 days 15 hours 40 minutes 56 seconds 139 msec
