                         Program Version 4.1.2  - RELEASE  -
|  1> ! aug-cc-pVTZ aug-cc-pVTZ/C DLPNO-CCSD(T1) TightSCF NormalPNO UNO MiniPrint AutoAux
|  2> %pal nproc 10 end
|  3> %maxcore 20000
|  4> %mdci
|  5>      density none
|  6> end
|  7>
|  8> * xyz 0 6
|  9>  O     -0.40640800     -0.18685400     -0.52683600
| 10>  C     -1.42243400     -1.20480500     -0.36079300
| 11>  C     -2.79101900     -0.12527700     -0.20558500
| 12>  C     -1.95576600      1.13149100     -0.27395900
| 13>  C     -1.86403700      1.86946400     -1.55792300
| 14> Fe      1.37569100      0.04089000      0.03532200
| 15> Cl      1.83658800      2.01841500     -0.84315400
| 16>  C     -1.56631000      1.85322900      0.96225700
| 17> Cl      2.47854900     -1.69321800     -0.72782000
| 18> Cl      1.35372000      0.15016200      2.24627700
| 19>  H     -3.38079200     -0.22542500     -1.12036600
| 20>  H     -2.43461800      2.46301700      1.26032100
| 21>  H     -1.32917100      1.18174000      1.78774700
| 22>  H     -0.72306100      2.52348000      0.78249800
| 23>  H     -2.66303800      2.62909600     -1.55099100
| 24>  H     -0.90431900      2.38608100     -1.64363900
| 25>  H     -2.02080500      1.21675100     -2.41801400
| 26>  C     -3.66474100     -0.32006400      1.02322400
| 27>  H     -4.45220000      0.44134000      1.07462100
| 28>  H     -4.15625000     -1.29630000      0.97299900
| 29>  H     -3.09568600     -0.28176800      1.95493500
| 30>  C     -1.18570500     -2.04214300      0.87690000
| 31>  H     -2.00283900     -2.75437900      1.02928000
| 32>  H     -0.25839700     -2.61211900      0.74407200
| 33>  H     -1.06847700     -1.42844700      1.77195300
| 34>  C     -1.51826200     -2.02642000     -1.62888900
| 35>  H     -0.57061700     -2.55549600     -1.78177000
| 36>  H     -2.32584500     -2.76350000     -1.56009400
| 37>  H     -1.69151000     -1.38632600     -2.49876700
| 38> *
| 39>
| 40>
| 41>                          ****END OF INPUT****

CARTESIAN COORDINATES (ANGSTROEM)
---------------------------------
  O     -0.406408   -0.186854   -0.526836
  C     -1.422434   -1.204805   -0.360793
  C     -2.791019   -0.125277   -0.205585
  C     -1.955766    1.131491   -0.273959
  C     -1.864037    1.869464   -1.557923
  Fe     1.375691    0.040890    0.035322
  Cl     1.836588    2.018415   -0.843154
  C     -1.566310    1.853229    0.962257
  Cl     2.478549   -1.693218   -0.727820
  Cl     1.353720    0.150162    2.246277
  H     -3.380792   -0.225425   -1.120366
  H     -2.434618    2.463017    1.260321
  H     -1.329171    1.181740    1.787747
  H     -0.723061    2.523480    0.782498
  H     -2.663038    2.629096   -1.550991
  H     -0.904319    2.386081   -1.643639
  H     -2.020805    1.216751   -2.418014
  C     -3.664741   -0.320064    1.023224
  H     -4.452200    0.441340    1.074621
  H     -4.156250   -1.296300    0.972999
  H     -3.095686   -0.281768    1.954935
  C     -1.185705   -2.042143    0.876900
  H     -2.002839   -2.754379    1.029280
  H     -0.258397   -2.612119    0.744072
  H     -1.068477   -1.428447    1.771953
  C     -1.518262   -2.026420   -1.628889
  H     -0.570617   -2.555496   -1.781770
  H     -2.325845   -2.763500   -1.560094
  H     -1.691510   -1.386326   -2.498767

ORBITAL ENERGIES
----------------
                 SPIN UP ORBITALS
  NO   OCC          E(Eh)            E(eV)
   0   1.0000    -261.549871     -7117.1338
   1   1.0000    -104.777726     -2851.1469
   2   1.0000    -104.775854     -2851.0959
   3   1.0000    -104.774003     -2851.0456
   4   1.0000     -32.217791      -876.6907
   5   1.0000     -27.693719      -753.5844
   6   1.0000     -27.693504      -753.5786
   7   1.0000     -27.693194      -753.5701
   8   1.0000     -20.561515      -559.5073
   9   1.0000     -11.403416      -310.3027
  10   1.0000     -11.343580      -308.6745
  11   1.0000     -11.292833      -307.2936
  12   1.0000     -11.277853      -306.8860
  13   1.0000     -11.275836      -306.8311
  14   1.0000     -11.262581      -306.4704
  15   1.0000     -11.238301      -305.8097
  16   1.0000     -11.236059      -305.7487
  17   1.0000     -10.504319      -285.8371
  18   1.0000     -10.502527      -285.7883
  19   1.0000     -10.500625      -285.7365
  20   1.0000      -7.971147      -216.9059
  21   1.0000      -7.970404      -216.8857
  22   1.0000      -7.970329      -216.8837
  23   1.0000      -7.969411      -216.8587
  24   1.0000      -7.968571      -216.8359
  25   1.0000      -7.968539      -216.8350
  26   1.0000      -7.967425      -216.8046
  27   1.0000      -7.966743      -216.7861
  28   1.0000      -7.966669      -216.7841
  29   1.0000      -4.573177      -124.4425
  30   1.0000      -3.185584       -86.6841
  31   1.0000      -3.185357       -86.6780
  32   1.0000      -3.184751       -86.6615
  33   1.0000      -1.357716       -36.9453
  34   1.0000      -1.168006       -31.7831
  35   1.0000      -1.087109       -29.5817
  36   1.0000      -1.049078       -28.5469
  37   1.0000      -1.043494       -28.3949
  38   1.0000      -1.041539       -28.3417
  39   1.0000      -1.037610       -28.2348
  40   1.0000      -1.011538       -27.5254
  41   1.0000      -0.966137       -26.2899
  42   1.0000      -0.929776       -25.3005
  43   1.0000      -0.904033       -24.6000
  44   1.0000      -0.902586       -24.5606
  45   1.0000      -0.901741       -24.5376
  46   1.0000      -0.894207       -24.3326
  47   1.0000      -0.893657       -24.3176
  48   1.0000      -0.794832       -21.6285
  49   1.0000      -0.758109       -20.6292
  50   1.0000      -0.696709       -18.9584
  51   1.0000      -0.686741       -18.6872
  52   1.0000      -0.669377       -18.2147
  53   1.0000      -0.637245       -17.3403
  54   1.0000      -0.629166       -17.1205
  55   1.0000      -0.623017       -16.9532
  56   1.0000      -0.599751       -16.3201
  57   1.0000      -0.595749       -16.2112
  58   1.0000      -0.591798       -16.1037
  59   1.0000      -0.580860       -15.8060
  60   1.0000      -0.573427       -15.6038
  61   1.0000      -0.558683       -15.2025
  62   1.0000      -0.545679       -14.8487
  63   1.0000      -0.537866       -14.6361
  64   1.0000      -0.530365       -14.4320
  65   1.0000      -0.520054       -14.1514
  66   1.0000      -0.505998       -13.7689
  67   1.0000      -0.478101       -13.0098
  68   1.0000      -0.464966       -12.6524
  69   1.0000      -0.452835       -12.3223
  70   1.0000      -0.436498       -11.8777
  71   1.0000      -0.427946       -11.6450
  72   1.0000      -0.423968       -11.5368
  73   1.0000      -0.417797       -11.3688
  74   1.0000      -0.414865       -11.2890
  75   1.0000      -0.413536       -11.2529
  76   1.0000      -0.411082       -11.1861
  77   0.0000       0.007698         0.2095
  78   0.0000       0.020090         0.5467
  79   0.0000       0.022306         0.6070
  80   0.0000       0.030813         0.8385
  81   0.0000       0.037330         1.0158

                 SPIN DOWN ORBITALS
  NO   OCC          E(Eh)            E(eV)
   0   1.0000    -261.546321     -7117.0372
   1   1.0000    -104.776390     -2851.1105
   2   1.0000    -104.774464     -2851.0581
   3   1.0000    -104.772545     -2851.0059
   4   1.0000     -32.055816      -872.2831
   5   1.0000     -27.533863      -749.2345
   6   1.0000     -27.533686      -749.2297
   7   1.0000     -27.533265      -749.2182
   8   1.0000     -20.556029      -559.3580
   9   1.0000     -11.403465      -310.3041
  10   1.0000     -11.343417      -308.6701
  11   1.0000     -11.292688      -307.2897
  12   1.0000     -11.277833      -306.8854
  13   1.0000     -11.275844      -306.8313
  14   1.0000     -11.262577      -306.4703
  15   1.0000     -11.238258      -305.8086
  16   1.0000     -11.236045      -305.7483
  17   1.0000     -10.502886      -285.7980
  18   1.0000     -10.501034      -285.7477
  19   1.0000     -10.499066      -285.6941
  20   1.0000      -7.968841      -216.8432
  21   1.0000      -7.968215      -216.8261
  22   1.0000      -7.968144      -216.8242
  23   1.0000      -7.966927      -216.7911
  24   1.0000      -7.966357      -216.7756
  25   1.0000      -7.966295      -216.7739
  26   1.0000      -7.965047      -216.7400
  27   1.0000      -7.964266      -216.7187
  28   1.0000      -7.964211      -216.7172
  29   1.0000      -4.131105      -112.4131
  30   1.0000      -2.653007       -72.1920
  31   1.0000      -2.652914       -72.1895
  32   1.0000      -2.651943       -72.1630
  33   1.0000      -1.343341       -36.5542
  34   1.0000      -1.166490       -31.7418
  35   1.0000      -1.084586       -29.5131
  36   1.0000      -1.036341       -28.2003
  37   1.0000      -1.034488       -28.1498
  38   1.0000      -1.023705       -27.8564
  39   1.0000      -1.021063       -27.7845
  40   1.0000      -1.011123       -27.5141
  41   1.0000      -0.965495       -26.2725
  42   1.0000      -0.923875       -25.1399
  43   1.0000      -0.797547       -21.7024
  44   1.0000      -0.762423       -20.7466
  45   1.0000      -0.696797       -18.9608
  46   1.0000      -0.686283       -18.6747
  47   1.0000      -0.670189       -18.2368
  48   1.0000      -0.638369       -17.3709
  49   1.0000      -0.629369       -17.1260
  50   1.0000      -0.621175       -16.9030
  51   1.0000      -0.599800       -16.3214
  52   1.0000      -0.594746       -16.1838
  53   1.0000      -0.591775       -16.1030
  54   1.0000      -0.579219       -15.7614
  55   1.0000      -0.572982       -15.5916
  56   1.0000      -0.558433       -15.1957
  57   1.0000      -0.542666       -14.7667
  58   1.0000      -0.537164       -14.6170
  59   1.0000      -0.528522       -14.3818
  60   1.0000      -0.514863       -14.0101
  61   1.0000      -0.503685       -13.7060
  62   1.0000      -0.474456       -12.9106
  63   1.0000      -0.467944       -12.7334
  64   1.0000      -0.462660       -12.5896
  65   1.0000      -0.439043       -11.9470
  66   1.0000      -0.435453       -11.8493
  67   1.0000      -0.434830       -11.8323
  68   1.0000      -0.433152       -11.7867
  69   1.0000      -0.413985       -11.2651
  70   1.0000      -0.405269       -11.0279
  71   1.0000      -0.400980       -10.9112
  72   0.0000       0.007672         0.2088
  73   0.0000       0.019984         0.5438
  74   0.0000       0.022286         0.6064
  75   0.0000       0.030853         0.8396
  76   0.0000       0.037296         1.0149

E(0)                                       ...  -3028.434852070
E(0)                                       ...  -3028.434852070
E(CORR)(strong-pairs)                      ...     -2.873322626
E(CORR)(weak-pairs)                        ...     -0.035426506
E(CORR)(corrected)                         ...     -2.908749132
E(TOT)                                     ...  -3031.343601202
E(CCSD(T))                                 ...  -3031.462442632
FINAL SINGLE POINT ENERGY     -3031.462442632444

DIPOLE MOMENT
-------------
                                X             Y             Z
Electronic contribution:     40.17129       3.67738       1.82686
Nuclear contribution   :    -44.76330      -3.18131      -2.22074
                        -----------------------------------------
Total Dipole Moment    :     -4.59201       0.49607      -0.39388
                        -----------------------------------------
Magnitude (a.u.)       :      4.63549
Magnitude (Debye)      :     11.78249

Rotational constants in cm-1:     0.018898     0.012025     0.010775
Rotational constants in MHz :   566.534383   360.502820   323.040805

                             ****ORCA TERMINATED NORMALLY****
TOTAL RUN TIME: 0 days 21 hours 4 minutes 41 seconds 660 msec
