                         Program Version 4.1.2  - RELEASE  -
|  1> ! aug-cc-pVTZ aug-cc-pVTZ/C DLPNO-CCSD(T1) TightSCF NormalPNO UNO MiniPrint AutoAux
|  2> %pal nproc 10 end
|  3> %maxcore 20000
|  4> %mdci
|  5>      density none
|  6> end
|  7>
|  8> * xyz 0 6
|  9>  O      0.44343600      0.14934100     -0.46763300
| 10>  C      1.38124300      1.24254100     -0.35596500
| 11>  C      2.87073100      0.07468200     -0.19004600
| 12>  C      1.93258900     -1.09837600     -0.29998900
| 13>  C      1.83124900     -1.80067300     -1.61027300
| 14> Fe     -1.37161200     -0.05377900      0.05103800
| 15> Cl     -1.86946100     -2.00033000     -0.85867600
| 16>  C      1.55414000     -1.87773100      0.91214900
| 17> Cl     -2.39690100      1.71708700     -0.73647800
| 18> Cl     -1.38141700     -0.15512900      2.25673400
| 19>  H      3.46020500      0.19689400     -1.10024100
| 20>  H      2.40824200     -2.52774700      1.15668400
| 21>  H      1.35501900     -1.24241200      1.77536500
| 22>  H      0.68523400     -2.51083000      0.72057700
| 23>  H      2.63292800     -2.55546800     -1.63484400
| 24>  H      0.87137000     -2.31246900     -1.71163100
| 25>  H      1.98274500     -1.11896100     -2.44918300
| 26>  C      3.69286400      0.24998500      1.06765500
| 27>  H      4.45289000     -0.53629900      1.16351800
| 28>  H      4.21890500      1.20907300      1.03424100
| 29>  H      3.08278200      0.23667500      1.97422000
| 30>  C      1.17467000      2.07055900      0.88291800
| 31>  H      1.98542400      2.79584300      1.00344600
| 32>  H      0.23292900      2.62660800      0.78536200
| 33>  H      1.10053500      1.45285900      1.77971100
| 34>  C      1.44778800      2.01959100     -1.64422800
| 35>  H      0.47739300      2.50412400     -1.81218600
| 36>  H      2.22200700      2.79221900     -1.59633200
| 37>  H      1.64640700      1.36228400     -2.49482900
| 38> *
| 39>
| 40>
| 41>                          ****END OF INPUT****

CARTESIAN COORDINATES (ANGSTROEM)
---------------------------------
  O      0.443436    0.149341   -0.467633
  C      1.381243    1.242541   -0.355965
  C      2.870731    0.074682   -0.190046
  C      1.932589   -1.098376   -0.299989
  C      1.831249   -1.800673   -1.610273
  Fe    -1.371612   -0.053779    0.051038
  Cl    -1.869461   -2.000330   -0.858676
  C      1.554140   -1.877731    0.912149
  Cl    -2.396901    1.717087   -0.736478
  Cl    -1.381417   -0.155129    2.256734
  H      3.460205    0.196894   -1.100241
  H      2.408242   -2.527747    1.156684
  H      1.355019   -1.242412    1.775365
  H      0.685234   -2.510830    0.720577
  H      2.632928   -2.555468   -1.634844
  H      0.871370   -2.312469   -1.711631
  H      1.982745   -1.118961   -2.449183
  C      3.692864    0.249985    1.067655
  H      4.452890   -0.536299    1.163518
  H      4.218905    1.209073    1.034241
  H      3.082782    0.236675    1.974220
  C      1.174670    2.070559    0.882918
  H      1.985424    2.795843    1.003446
  H      0.232929    2.626608    0.785362
  H      1.100535    1.452859    1.779711
  C      1.447788    2.019591   -1.644228
  H      0.477393    2.504124   -1.812186
  H      2.222007    2.792219   -1.596332
  H      1.646407    1.362284   -2.494829

ORBITAL ENERGIES
----------------
                 SPIN UP ORBITALS
  NO   OCC          E(Eh)            E(eV)
   0   1.0000    -261.555491     -7117.2868
   1   1.0000    -104.781450     -2851.2482
   2   1.0000    -104.778877     -2851.1782
   3   1.0000    -104.778826     -2851.1768
   4   1.0000     -32.223394      -876.8431
   5   1.0000     -27.699420      -753.7395
   6   1.0000     -27.699006      -753.7283
   7   1.0000     -27.698789      -753.7224
   8   1.0000     -20.574467      -559.8597
   9   1.0000     -11.393215      -310.0251
  10   1.0000     -11.356126      -309.0159
  11   1.0000     -11.288474      -307.1750
  12   1.0000     -11.270697      -306.6912
  13   1.0000     -11.268826      -306.6403
  14   1.0000     -11.257974      -306.3450
  15   1.0000     -11.242234      -305.9167
  16   1.0000     -11.240314      -305.8645
  17   1.0000     -10.508058      -285.9388
  18   1.0000     -10.505531      -285.8700
  19   1.0000     -10.505459      -285.8681
  20   1.0000      -7.974871      -217.0073
  21   1.0000      -7.974148      -216.9876
  22   1.0000      -7.974088      -216.9860
  23   1.0000      -7.972412      -216.9404
  24   1.0000      -7.972259      -216.9362
  25   1.0000      -7.971589      -216.9180
  26   1.0000      -7.971568      -216.9174
  27   1.0000      -7.971546      -216.9168
  28   1.0000      -7.971510      -216.9158
  29   1.0000      -4.578705      -124.5929
  30   1.0000      -3.191217       -86.8374
  31   1.0000      -3.190765       -86.8251
  32   1.0000      -3.190208       -86.8100
  33   1.0000      -1.369597       -37.2686
  34   1.0000      -1.156893       -31.4807
  35   1.0000      -1.082156       -29.4470
  36   1.0000      -1.053320       -28.6623
  37   1.0000      -1.047195       -28.4956
  38   1.0000      -1.046243       -28.4697
  39   1.0000      -1.037699       -28.2372
  40   1.0000      -1.003265       -27.3002
  41   1.0000      -0.970639       -26.4124
  42   1.0000      -0.926417       -25.2091
  43   1.0000      -0.908129       -24.7115
  44   1.0000      -0.908091       -24.7104
  45   1.0000      -0.903587       -24.5879
  46   1.0000      -0.899299       -24.4712
  47   1.0000      -0.898607       -24.4523
  48   1.0000      -0.789982       -21.4965
  49   1.0000      -0.757380       -20.6094
  50   1.0000      -0.690399       -18.7867
  51   1.0000      -0.683663       -18.6034
  52   1.0000      -0.666828       -18.1453
  53   1.0000      -0.641284       -17.4502
  54   1.0000      -0.625815       -17.0293
  55   1.0000      -0.622664       -16.9436
  56   1.0000      -0.595725       -16.2105
  57   1.0000      -0.593712       -16.1557
  58   1.0000      -0.586427       -15.9575
  59   1.0000      -0.580688       -15.8013
  60   1.0000      -0.569016       -15.4837
  61   1.0000      -0.560632       -15.2556
  62   1.0000      -0.545155       -14.8344
  63   1.0000      -0.537828       -14.6350
  64   1.0000      -0.533190       -14.5088
  65   1.0000      -0.525359       -14.2957
  66   1.0000      -0.508826       -13.8459
  67   1.0000      -0.486340       -13.2340
  68   1.0000      -0.467583       -12.7236
  69   1.0000      -0.457700       -12.4547
  70   1.0000      -0.437071       -11.8933
  71   1.0000      -0.430510       -11.7148
  72   1.0000      -0.427376       -11.6295
  73   1.0000      -0.421208       -11.4617
  74   1.0000      -0.418415       -11.3857
  75   1.0000      -0.417493       -11.3606
  76   1.0000      -0.390726       -10.6322
  77   0.0000       0.009989         0.2718
  78   0.0000       0.021329         0.5804
  79   0.0000       0.023560         0.6411
  80   0.0000       0.031277         0.8511
  81   0.0000       0.038105         1.0369

                 SPIN DOWN ORBITALS
  NO   OCC          E(Eh)            E(eV)
   0   1.0000    -261.551937     -7117.1900
   1   1.0000    -104.780072     -2851.2107
   2   1.0000    -104.777455     -2851.1395
   3   1.0000    -104.777358     -2851.1369
   4   1.0000     -32.061455      -872.4365
   5   1.0000     -27.539444      -749.3864
   6   1.0000     -27.539314      -749.3828
   7   1.0000     -27.538962      -749.3732
   8   1.0000     -20.569460      -559.7235
   9   1.0000     -11.393256      -310.0263
  10   1.0000     -11.356097      -309.0151
  11   1.0000     -11.288211      -307.1678
  12   1.0000     -11.270677      -306.6907
  13   1.0000     -11.268836      -306.6406
  14   1.0000     -11.257982      -306.3453
  15   1.0000     -11.242195      -305.9157
  16   1.0000     -11.240301      -305.8641
  17   1.0000     -10.506582      -285.8986
  18   1.0000     -10.504006      -285.8285
  19   1.0000     -10.503889      -285.8254
  20   1.0000      -7.972548      -216.9440
  21   1.0000      -7.971860      -216.9253
  22   1.0000      -7.971798      -216.9237
  23   1.0000      -7.969903      -216.8721
  24   1.0000      -7.969862      -216.8710
  25   1.0000      -7.969298      -216.8556
  26   1.0000      -7.969229      -216.8537
  27   1.0000      -7.969079      -216.8497
  28   1.0000      -7.969029      -216.8483
  29   1.0000      -4.136677      -112.5647
  30   1.0000      -2.658589       -72.3439
  31   1.0000      -2.658354       -72.3375
  32   1.0000      -2.657550       -72.3156
  33   1.0000      -1.356411       -36.9098
  34   1.0000      -1.155526       -31.4435
  35   1.0000      -1.079510       -29.3750
  36   1.0000      -1.038530       -28.2598
  37   1.0000      -1.036697       -28.2100
  38   1.0000      -1.027024       -27.9468
  39   1.0000      -1.025288       -27.8995
  40   1.0000      -1.003012       -27.2934
  41   1.0000      -0.970151       -26.3991
  42   1.0000      -0.915302       -24.9066
  43   1.0000      -0.793331       -21.5876
  44   1.0000      -0.760780       -20.7019
  45   1.0000      -0.690526       -18.7902
  46   1.0000      -0.683545       -18.6002
  47   1.0000      -0.667119       -18.1532
  48   1.0000      -0.641929       -17.4678
  49   1.0000      -0.624126       -16.9833
  50   1.0000      -0.622997       -16.9526
  51   1.0000      -0.594877       -16.1874
  52   1.0000      -0.593546       -16.1512
  53   1.0000      -0.586437       -15.9578
  54   1.0000      -0.578636       -15.7455
  55   1.0000      -0.568877       -15.4799
  56   1.0000      -0.560566       -15.2538
  57   1.0000      -0.542516       -14.7626
  58   1.0000      -0.537464       -14.6251
  59   1.0000      -0.531931       -14.4746
  60   1.0000      -0.520041       -14.1510
  61   1.0000      -0.507420       -13.8076
  62   1.0000      -0.482164       -13.1203
  63   1.0000      -0.472134       -12.8474
  64   1.0000      -0.468180       -12.7398
  65   1.0000      -0.442140       -12.0312
  66   1.0000      -0.439754       -11.9663
  67   1.0000      -0.437350       -11.9009
  68   1.0000      -0.425764       -11.5856
  69   1.0000      -0.416746       -11.3402
  70   1.0000      -0.404413       -11.0046
  71   1.0000      -0.391596       -10.6559
  72   0.0000       0.009971         0.2713
  73   0.0000       0.021247         0.5782
  74   0.0000       0.023539         0.6405
  75   0.0000       0.031328         0.8525
  76   0.0000       0.038106         1.0369

E(0)                                       ...  -3028.420199569
E(0)                                       ...  -3028.420199569
E(CORR)(strong-pairs)                      ...     -2.877157320
E(CORR)(weak-pairs)                        ...     -0.035935834
E(CORR)(corrected)                         ...     -2.913093154
E(TOT)                                     ...  -3031.333292723
E(CCSD(T))                                 ...  -3031.453337828
FINAL SINGLE POINT ENERGY     -3031.453337828124

DIPOLE MOMENT
-------------
                                X             Y             Z
Electronic contribution:    -40.20989      -3.37079       2.01105
Nuclear contribution   :     44.46674       3.09068      -2.46207
                        -----------------------------------------
Total Dipole Moment    :      4.25685      -0.28011      -0.45102
                        -----------------------------------------
Magnitude (a.u.)       :      4.28983
Magnitude (Debye)      :     10.90388

Rotational constants in cm-1:     0.018807     0.012032     0.010832
Rotational constants in MHz :   563.809126   360.719651   324.735884

                             ****ORCA TERMINATED NORMALLY****
TOTAL RUN TIME: 0 days 21 hours 51 minutes 54 seconds 367 msec
