                         Program Version 4.1.2  - RELEASE  -
|  1> ! aug-cc-pVTZ aug-cc-pVTZ/C DLPNO-CCSD(T1) TightSCF NormalPNO UNO MiniPrint AutoAux
|  2> %pal nproc 10 end
|  3> %maxcore 20000
|  4> %mdci
|  5>      density none
|  6> end
|  7>
|  8> * xyz 0 6
|  9>  O     -0.35181800     -0.23449900     -0.57982700
| 10>  C     -1.38512700     -1.18528200     -0.42604800
| 11>  C     -2.81551200     -0.13187700     -0.13564400
| 12>  C     -2.05337800      1.12164000     -0.25494200
| 13>  C     -1.93958200      1.80589400     -1.56090700
| 14> Fe      1.38017500      0.04079700      0.03085800
| 15> Cl      1.77851400      2.06646400     -0.79485300
| 16>  C     -1.57076900      1.84271400      0.94090400
| 17> Cl      2.62398500     -1.61291200     -0.70309100
| 18> Cl      1.27799700      0.11231300      2.25337900
| 19>  H     -3.45887000     -0.27566600     -1.00617200
| 20>  H     -2.43419800      2.41058300      1.32775700
| 21>  H     -1.24287500      1.16984200      1.73524100
| 22>  H     -0.77029700      2.54397000      0.69831500
| 23>  H     -2.64403000      2.65452200     -1.53615300
| 24>  H     -0.93336200      2.21734000     -1.68953000
| 25>  H     -2.20553900      1.16137400     -2.39938800
| 26>  C     -3.55967600     -0.39932400      1.16323300
| 27>  H     -4.37946900      0.31590100      1.30085800
| 28>  H     -3.99932000     -1.40016700      1.13678200
| 29>  H     -2.91162900     -0.34400300      2.04051000
| 30>  C     -1.15487100     -2.10936400      0.74953900
| 31>  H     -1.98370000     -2.81042800      0.88386800
| 32>  H     -0.24657300     -2.68847400      0.53946200
| 33>  H     -0.98068200     -1.55930800      1.67571100
| 34>  C     -1.60774200     -1.92264700     -1.73176400
| 35>  H     -0.69641100     -2.48702300     -1.96237900
| 36>  H     -2.44939100     -2.61978100     -1.66283100
| 37>  H     -1.78214100     -1.22363900     -2.55437400
| 38> *
| 39>
| 40>
| 41>                          ****END OF INPUT****

CARTESIAN COORDINATES (ANGSTROEM)
---------------------------------
  O     -0.351818   -0.234499   -0.579827
  C     -1.385127   -1.185282   -0.426048
  C     -2.815512   -0.131877   -0.135644
  C     -2.053378    1.121640   -0.254942
  C     -1.939582    1.805894   -1.560907
  Fe     1.380175    0.040797    0.030858
  Cl     1.778514    2.066464   -0.794853
  C     -1.570769    1.842714    0.940904
  Cl     2.623985   -1.612912   -0.703091
  Cl     1.277997    0.112313    2.253379
  H     -3.458870   -0.275666   -1.006172
  H     -2.434198    2.410583    1.327757
  H     -1.242875    1.169842    1.735241
  H     -0.770297    2.543970    0.698315
  H     -2.644030    2.654522   -1.536153
  H     -0.933362    2.217340   -1.689530
  H     -2.205539    1.161374   -2.399388
  C     -3.559676   -0.399324    1.163233
  H     -4.379469    0.315901    1.300858
  H     -3.999320   -1.400167    1.136782
  H     -2.911629   -0.344003    2.040510
  C     -1.154871   -2.109364    0.749539
  H     -1.983700   -2.810428    0.883868
  H     -0.246573   -2.688474    0.539462
  H     -0.980682   -1.559308    1.675711
  C     -1.607742   -1.922647   -1.731764
  H     -0.696411   -2.487023   -1.962379
  H     -2.449391   -2.619781   -1.662831
  H     -1.782141   -1.223639   -2.554374

ORBITAL ENERGIES
----------------
                 SPIN UP ORBITALS
  NO   OCC          E(Eh)            E(eV)
   0   1.0000    -261.545889     -7117.0255
   1   1.0000    -104.774725     -2851.0652
   2   1.0000    -104.773638     -2851.0356
   3   1.0000    -104.770542     -2850.9514
   4   1.0000     -32.213778      -876.5815
   5   1.0000     -27.689649      -753.4737
   6   1.0000     -27.689556      -753.4711
   7   1.0000     -27.689224      -753.4621
   8   1.0000     -20.546859      -559.1084
   9   1.0000     -11.405287      -310.3537
  10   1.0000     -11.353063      -308.9325
  11   1.0000     -11.290835      -307.2392
  12   1.0000     -11.282050      -307.0002
  13   1.0000     -11.277916      -306.8877
  14   1.0000     -11.263919      -306.5068
  15   1.0000     -11.241526      -305.8975
  16   1.0000     -11.236805      -305.7690
  17   1.0000     -10.501243      -285.7533
  18   1.0000     -10.500257      -285.7265
  19   1.0000     -10.497101      -285.6406
  20   1.0000      -7.968081      -216.8225
  21   1.0000      -7.967316      -216.8017
  22   1.0000      -7.967230      -216.7994
  23   1.0000      -7.967154      -216.7973
  24   1.0000      -7.966286      -216.7737
  25   1.0000      -7.966248      -216.7726
  26   1.0000      -7.963900      -216.7087
  27   1.0000      -7.963222      -216.6903
  28   1.0000      -7.963136      -216.6879
  29   1.0000      -4.569251      -124.3356
  30   1.0000      -3.181701       -86.5785
  31   1.0000      -3.181476       -86.5724
  32   1.0000      -3.180880       -86.5562
  33   1.0000      -1.358558       -36.9682
  34   1.0000      -1.180592       -32.1255
  35   1.0000      -1.086806       -29.5735
  36   1.0000      -1.045485       -28.4491
  37   1.0000      -1.040262       -28.3070
  38   1.0000      -1.040071       -28.3018
  39   1.0000      -1.037578       -28.2339
  40   1.0000      -1.015811       -27.6416
  41   1.0000      -0.969086       -26.3702
  42   1.0000      -0.932289       -25.3689
  43   1.0000      -0.905299       -24.6344
  44   1.0000      -0.898793       -24.4574
  45   1.0000      -0.898671       -24.4541
  46   1.0000      -0.890730       -24.2380
  47   1.0000      -0.890360       -24.2279
  48   1.0000      -0.791285       -21.5320
  49   1.0000      -0.761137       -20.7116
  50   1.0000      -0.701712       -19.0946
  51   1.0000      -0.689148       -18.7527
  52   1.0000      -0.672603       -18.3025
  53   1.0000      -0.639772       -17.4091
  54   1.0000      -0.631187       -17.1755
  55   1.0000      -0.628913       -17.1136
  56   1.0000      -0.599947       -16.3254
  57   1.0000      -0.599338       -16.3088
  58   1.0000      -0.594607       -16.1801
  59   1.0000      -0.581373       -15.8200
  60   1.0000      -0.577318       -15.7096
  61   1.0000      -0.558506       -15.1977
  62   1.0000      -0.551652       -15.0112
  63   1.0000      -0.540206       -14.6998
  64   1.0000      -0.532253       -14.4834
  65   1.0000      -0.524445       -14.2709
  66   1.0000      -0.505393       -13.7524
  67   1.0000      -0.473808       -12.8930
  68   1.0000      -0.461549       -12.5594
  69   1.0000      -0.448468       -12.2034
  70   1.0000      -0.428631       -11.6636
  71   1.0000      -0.425523       -11.5791
  72   1.0000      -0.421095       -11.4586
  73   1.0000      -0.414604       -11.2820
  74   1.0000      -0.412497       -11.2246
  75   1.0000      -0.410357       -11.1664
  76   1.0000      -0.405250       -11.0274
  77   0.0000       0.006326         0.1721
  78   0.0000       0.018435         0.5016
  79   0.0000       0.021309         0.5798
  80   0.0000       0.027713         0.7541
  81   0.0000       0.030433         0.8281

                 SPIN DOWN ORBITALS
  NO   OCC          E(Eh)            E(eV)
   0   1.0000    -261.542346     -7116.9290
   1   1.0000    -104.773443     -2851.0303
   2   1.0000    -104.772294     -2850.9991
   3   1.0000    -104.769108     -2850.9124
   4   1.0000     -32.051764      -872.1728
   5   1.0000     -27.529879      -749.1261
   6   1.0000     -27.529663      -749.1202
   7   1.0000     -27.529145      -749.1061
   8   1.0000     -20.540834      -558.9445
   9   1.0000     -11.405321      -310.3546
  10   1.0000     -11.352889      -308.9278
  11   1.0000     -11.290638      -307.2339
  12   1.0000     -11.282031      -306.9997
  13   1.0000     -11.277929      -306.8881
  14   1.0000     -11.263929      -306.5071
  15   1.0000     -11.241455      -305.8955
  16   1.0000     -11.236778      -305.7683
  17   1.0000     -10.499863      -285.7158
  18   1.0000     -10.498808      -285.6871
  19   1.0000     -10.495567      -285.5989
  20   1.0000      -7.965806      -216.7606
  21   1.0000      -7.965252      -216.7455
  22   1.0000      -7.965166      -216.7432
  23   1.0000      -7.964676      -216.7299
  24   1.0000      -7.964186      -216.7165
  25   1.0000      -7.964118      -216.7147
  26   1.0000      -7.961554      -216.6449
  27   1.0000      -7.960788      -216.6241
  28   1.0000      -7.960725      -216.6223
  29   1.0000      -4.127109      -112.3043
  30   1.0000      -2.648978       -72.0824
  31   1.0000      -2.648925       -72.0809
  32   1.0000      -2.648114       -72.0588
  33   1.0000      -1.342715       -36.5371
  34   1.0000      -1.179290       -32.0901
  35   1.0000      -1.084168       -29.5017
  36   1.0000      -1.038662       -28.2634
  37   1.0000      -1.031409       -28.0661
  38   1.0000      -1.021371       -27.7929
  39   1.0000      -1.017766       -27.6948
  40   1.0000      -1.014716       -27.6118
  41   1.0000      -0.968394       -26.3513
  42   1.0000      -0.929346       -25.2888
  43   1.0000      -0.795514       -21.6470
  44   1.0000      -0.766743       -20.8641
  45   1.0000      -0.701893       -19.0995
  46   1.0000      -0.688431       -18.7332
  47   1.0000      -0.673658       -18.3312
  48   1.0000      -0.641885       -17.4666
  49   1.0000      -0.631177       -17.1752
  50   1.0000      -0.626820       -17.0567
  51   1.0000      -0.599873       -16.3234
  52   1.0000      -0.598706       -16.2916
  53   1.0000      -0.594322       -16.1723
  54   1.0000      -0.580289       -15.7905
  55   1.0000      -0.576520       -15.6879
  56   1.0000      -0.558381       -15.1943
  57   1.0000      -0.549806       -14.9610
  58   1.0000      -0.539737       -14.6870
  59   1.0000      -0.530588       -14.4380
  60   1.0000      -0.518643       -14.1130
  61   1.0000      -0.500585       -13.6216
  62   1.0000      -0.470745       -12.8096
  63   1.0000      -0.464346       -12.6355
  64   1.0000      -0.457822       -12.4580
  65   1.0000      -0.435892       -11.8612
  66   1.0000      -0.432158       -11.7596
  67   1.0000      -0.431334       -11.7372
  68   1.0000      -0.427793       -11.6408
  69   1.0000      -0.410571       -11.1722
  70   1.0000      -0.398676       -10.8485
  71   1.0000      -0.397635       -10.8202
  72   0.0000       0.006298         0.1714
  73   0.0000       0.018220         0.4958
  74   0.0000       0.021290         0.5793
  75   0.0000       0.027091         0.7372
  76   0.0000       0.030469         0.8291

E(0)                                       ...  -3028.428349208
E(0)                                       ...  -3028.428349208
E(CORR)(strong-pairs)                      ...     -2.869882044
E(CORR)(weak-pairs)                        ...     -0.035532937
E(CORR)(corrected)                         ...     -2.905414981
E(TOT)                                     ...  -3031.333764189
E(CCSD(T))                                 ...  -3031.451938066
FINAL SINGLE POINT ENERGY     -3031.451938066234

DIPOLE MOMENT
-------------
                                X             Y             Z
Electronic contribution:     40.01214       4.23754       2.14455
Nuclear contribution   :    -44.83442      -3.76192      -2.58255
                        -----------------------------------------
Total Dipole Moment    :     -4.82228       0.47563      -0.43800
                        -----------------------------------------
Magnitude (a.u.)       :      4.86543
Magnitude (Debye)      :     12.36694

Rotational constants in cm-1:     0.018987     0.011879     0.010747
Rotational constants in MHz :   569.201834   356.123178   322.184126

                             ****ORCA TERMINATED NORMALLY****
TOTAL RUN TIME: 0 days 22 hours 42 minutes 31 seconds 846 msec
