                         Program Version 4.1.2  - RELEASE  -
|  1> ! aug-cc-pVTZ aug-cc-pVTZ/C DLPNO-CCSD(T1) TightSCF NormalPNO UNO MiniPrint AutoAux
|  2> %pal nproc 10 end
|  3> %maxcore 20000
|  4> %mdci
|  5>      density none
|  6> end
|  7>
|  8> * xyz 0 6
|  9>  O     -0.35213400     -0.10714600     -0.44472100
| 10>  C     -1.24375500     -1.09677900     -0.29792100
| 11>  C     -2.55271600     -0.44040100      0.66035100
| 12>  C     -2.82694600      0.75579900     -0.05343900
| 13>  C     -3.82081400      0.78127800     -1.15807300
| 14> Fe      1.46004200      0.17141200     -0.07561400
| 15> Cl      1.72423600      2.24286300     -0.79481100
| 16>  C     -2.06529200      1.97441100      0.19566000
| 17> Cl      2.56901800     -1.39418800     -1.15211500
| 18> Cl      1.70355100      0.03714600      2.12467200
| 19>  H     -3.33472500     -1.19083500      0.52476000
| 20>  H     -2.45426200      2.85478500     -0.31801000
| 21>  H     -1.87855300      2.17129500      1.25396200
| 22>  H     -1.06301500      1.71984000     -0.22487100
| 23>  H     -4.64569500      1.43746600     -0.84062200
| 24>  H     -3.39636700      1.24767800     -2.05614500
| 25>  H     -4.23112900     -0.19962400     -1.39882000
| 26>  C     -2.09586400     -0.29236600      2.11278300
| 27>  H     -2.78662200      0.35649200      2.66154300
| 28>  H     -2.09159600     -1.26402600      2.60881100
| 29>  H     -1.08963900      0.12681300      2.18388100
| 30>  C     -0.73477700     -2.28806900      0.52569400
| 31>  H     -1.53079100     -3.00878900      0.73541500
| 32>  H      0.03308600     -2.77975400     -0.08161500
| 33>  H     -0.26548600     -1.97015200      1.45620200
| 34>  C     -1.77862400     -1.57136700     -1.65257700
| 35>  H     -0.96510100     -2.11201200     -2.14617800
| 36>  H     -2.63248400     -2.24940100     -1.55245700
| 37>  H     -2.04460100     -0.73331100     -2.29866400
| 38> *
| 39>
| 40>
| 41>                          ****END OF INPUT****

CARTESIAN COORDINATES (ANGSTROEM)
---------------------------------
  O     -0.352134   -0.107146   -0.444721
  C     -1.243755   -1.096779   -0.297921
  C     -2.552716   -0.440401    0.660351
  C     -2.826946    0.755799   -0.053439
  C     -3.820814    0.781278   -1.158073
  Fe     1.460042    0.171412   -0.075614
  Cl     1.724236    2.242863   -0.794811
  C     -2.065292    1.974411    0.195660
  Cl     2.569018   -1.394188   -1.152115
  Cl     1.703551    0.037146    2.124672
  H     -3.334725   -1.190835    0.524760
  H     -2.454262    2.854785   -0.318010
  H     -1.878553    2.171295    1.253962
  H     -1.063015    1.719840   -0.224871
  H     -4.645695    1.437466   -0.840622
  H     -3.396367    1.247678   -2.056145
  H     -4.231129   -0.199624   -1.398820
  C     -2.095864   -0.292366    2.112783
  H     -2.786622    0.356492    2.661543
  H     -2.091596   -1.264026    2.608811
  H     -1.089639    0.126813    2.183881
  C     -0.734777   -2.288069    0.525694
  H     -1.530791   -3.008789    0.735415
  H      0.033086   -2.779754   -0.081615
  H     -0.265486   -1.970152    1.456202
  C     -1.778624   -1.571367   -1.652577
  H     -0.965101   -2.112012   -2.146178
  H     -2.632484   -2.249401   -1.552457
  H     -2.044601   -0.733311   -2.298664

ORBITAL ENERGIES
----------------
                 SPIN UP ORBITALS
  NO   OCC          E(Eh)            E(eV)
   0   1.0000    -261.542118     -7116.9228
   1   1.0000    -104.769838     -2850.9322
   2   1.0000    -104.768826     -2850.9047
   3   1.0000    -104.767240     -2850.8615
   4   1.0000     -32.210050      -876.4800
   5   1.0000     -27.685928      -753.3724
   6   1.0000     -27.685771      -753.3681
   7   1.0000     -27.685509      -753.3610
   8   1.0000     -20.539661      -558.9126
   9   1.0000     -11.391553      -309.9799
  10   1.0000     -11.356240      -309.0190
  11   1.0000     -11.301815      -307.5380
  12   1.0000     -11.288795      -307.1837
  13   1.0000     -11.273008      -306.7542
  14   1.0000     -11.253803      -306.2316
  15   1.0000     -11.245879      -306.0159
  16   1.0000     -11.236699      -305.7661
  17   1.0000     -10.496428      -285.6223
  18   1.0000     -10.495374      -285.5937
  19   1.0000     -10.493838      -285.5518
  20   1.0000      -7.963307      -216.6926
  21   1.0000      -7.962476      -216.6700
  22   1.0000      -7.962417      -216.6684
  23   1.0000      -7.962206      -216.6626
  24   1.0000      -7.961471      -216.6426
  25   1.0000      -7.961376      -216.6400
  26   1.0000      -7.960662      -216.6206
  27   1.0000      -7.959940      -216.6010
  28   1.0000      -7.959863      -216.5989
  29   1.0000      -4.565519      -124.2341
  30   1.0000      -3.178025       -86.4785
  31   1.0000      -3.177686       -86.4692
  32   1.0000      -3.177115       -86.4537
  33   1.0000      -1.377326       -37.4789
  34   1.0000      -1.198274       -32.6067
  35   1.0000      -1.086252       -29.5584
  36   1.0000      -1.046275       -28.4706
  37   1.0000      -1.040894       -28.3242
  38   1.0000      -1.035633       -28.1810
  39   1.0000      -1.033861       -28.1328
  40   1.0000      -1.017224       -27.6801
  41   1.0000      -0.970225       -26.4012
  42   1.0000      -0.933555       -25.4033
  43   1.0000      -0.907764       -24.7015
  44   1.0000      -0.895094       -24.3567
  45   1.0000      -0.895025       -24.3549
  46   1.0000      -0.886609       -24.1259
  47   1.0000      -0.886279       -24.1169
  48   1.0000      -0.796476       -21.6732
  49   1.0000      -0.769048       -20.9269
  50   1.0000      -0.710959       -19.3462
  51   1.0000      -0.697039       -18.9674
  52   1.0000      -0.675179       -18.3725
  53   1.0000      -0.651401       -17.7255
  54   1.0000      -0.648457       -17.6454
  55   1.0000      -0.632354       -17.2072
  56   1.0000      -0.606563       -16.5054
  57   1.0000      -0.601446       -16.3662
  58   1.0000      -0.590636       -16.0720
  59   1.0000      -0.585234       -15.9250
  60   1.0000      -0.572025       -15.5656
  61   1.0000      -0.562630       -15.3100
  62   1.0000      -0.556556       -15.1447
  63   1.0000      -0.538137       -14.6434
  64   1.0000      -0.532764       -14.4973
  65   1.0000      -0.517372       -14.0784
  66   1.0000      -0.503570       -13.7028
  67   1.0000      -0.466059       -12.6821
  68   1.0000      -0.458749       -12.4832
  69   1.0000      -0.442322       -12.0362
  70   1.0000      -0.427502       -11.6329
  71   1.0000      -0.420559       -11.4440
  72   1.0000      -0.416526       -11.3343
  73   1.0000      -0.409814       -11.1516
  74   1.0000      -0.407417       -11.0864
  75   1.0000      -0.406767       -11.0687
  76   1.0000      -0.405727       -11.0404
  77   0.0000       0.002152         0.0586
  78   0.0000       0.003869         0.1053
  79   0.0000       0.017797         0.4843
  80   0.0000       0.018847         0.5128
  81   0.0000       0.028075         0.7640

                 SPIN DOWN ORBITALS
  NO   OCC          E(Eh)            E(eV)
   0   1.0000    -261.538568     -7116.8262
   1   1.0000    -104.768477     -2850.8952
   2   1.0000    -104.767478     -2850.8680
   3   1.0000    -104.765823     -2850.8230
   4   1.0000     -32.047998      -872.0704
   5   1.0000     -27.526078      -749.0227
   6   1.0000     -27.525896      -749.0177
   7   1.0000     -27.525421      -749.0048
   8   1.0000     -20.533977      -558.7579
   9   1.0000     -11.391532      -309.9793
  10   1.0000     -11.356151      -309.0166
  11   1.0000     -11.301820      -307.5382
  12   1.0000     -11.288629      -307.1792
  13   1.0000     -11.273027      -306.7547
  14   1.0000     -11.253829      -306.2323
  15   1.0000     -11.245776      -306.0131
  16   1.0000     -11.236660      -305.7651
  17   1.0000     -10.494965      -285.5825
  18   1.0000     -10.493929      -285.5543
  19   1.0000     -10.492319      -285.5105
  20   1.0000      -7.960849      -216.6257
  21   1.0000      -7.960318      -216.6113
  22   1.0000      -7.960239      -216.6091
  23   1.0000      -7.959879      -216.5993
  24   1.0000      -7.959263      -216.5826
  25   1.0000      -7.959158      -216.5797
  26   1.0000      -7.958282      -216.5559
  27   1.0000      -7.957579      -216.5367
  28   1.0000      -7.957505      -216.5347
  29   1.0000      -4.123299      -112.2007
  30   1.0000      -2.645187       -71.9792
  31   1.0000      -2.645104       -71.9769
  32   1.0000      -2.644197       -71.9523
  33   1.0000      -1.362864       -37.0854
  34   1.0000      -1.197301       -32.5802
  35   1.0000      -1.083766       -29.4908
  36   1.0000      -1.045231       -28.4422
  37   1.0000      -1.026657       -27.9368
  38   1.0000      -1.016972       -27.6732
  39   1.0000      -1.015143       -27.6235
  40   1.0000      -1.013870       -27.5888
  41   1.0000      -0.969459       -26.3803
  42   1.0000      -0.932807       -25.3830
  43   1.0000      -0.802576       -21.8392
  44   1.0000      -0.775736       -21.1088
  45   1.0000      -0.711600       -19.3636
  46   1.0000      -0.696290       -18.9470
  47   1.0000      -0.675371       -18.3778
  48   1.0000      -0.653724       -17.7887
  49   1.0000      -0.647112       -17.6088
  50   1.0000      -0.631402       -17.1813
  51   1.0000      -0.606685       -16.5087
  52   1.0000      -0.601471       -16.3669
  53   1.0000      -0.589483       -16.0406
  54   1.0000      -0.584981       -15.9182
  55   1.0000      -0.570817       -15.5327
  56   1.0000      -0.562372       -15.3029
  57   1.0000      -0.556356       -15.1392
  58   1.0000      -0.537694       -14.6314
  59   1.0000      -0.531378       -14.4595
  60   1.0000      -0.512587       -13.9482
  61   1.0000      -0.497238       -13.5305
  62   1.0000      -0.464579       -12.6418
  63   1.0000      -0.460846       -12.5403
  64   1.0000      -0.449089       -12.2203
  65   1.0000      -0.432210       -11.7610
  66   1.0000      -0.430607       -11.7174
  67   1.0000      -0.427636       -11.6366
  68   1.0000      -0.426495       -11.6055
  69   1.0000      -0.406398       -11.0586
  70   1.0000      -0.395772       -10.7695
  71   1.0000      -0.393503       -10.7078
  72   0.0000       0.002117         0.0576
  73   0.0000       0.003756         0.1022
  74   0.0000       0.017794         0.4842
  75   0.0000       0.018831         0.5124
  76   0.0000       0.028089         0.7643

E(0)                                       ...  -3028.424999291
E(0)                                       ...  -3028.424999291
E(CORR)(strong-pairs)                      ...     -2.873886743
E(CORR)(weak-pairs)                        ...     -0.035638956
E(CORR)(corrected)                         ...     -2.909525700
E(TOT)                                     ...  -3031.334524991
E(CCSD(T))                                 ...  -3031.453632592
FINAL SINGLE POINT ENERGY     -3031.453632592128

DIPOLE MOMENT
-------------
                                X             Y             Z
Electronic contribution:     41.18635       7.10524      -0.65660
Nuclear contribution   :    -46.77747      -7.24416       0.51566
                        -----------------------------------------
Total Dipole Moment    :     -5.59112      -0.13892      -0.14094
                        -----------------------------------------
Magnitude (a.u.)       :      5.59462
Magnitude (Debye)      :     14.22040

Rotational constants in cm-1:     0.019546     0.010793     0.010232
Rotational constants in MHz :   585.982922   323.575446   306.745002

                             ****ORCA TERMINATED NORMALLY****
TOTAL RUN TIME: 0 days 20 hours 24 minutes 58 seconds 5 msec
