                         Program Version 4.1.2  - RELEASE  -
|  1> ! aug-cc-pVTZ aug-cc-pVTZ/C DLPNO-CCSD(T1) TightSCF NormalPNO UNO MiniPrint AutoAux
|  2> %pal nproc 10 end
|  3> %maxcore 20000
|  4> %mdci
|  5>      density none
|  6> end
|  7>
|  8> * xyz 0 6
|  9>  O     -0.28301800     -0.22746400     -0.79014500
| 10>  C     -1.12304200     -1.16664900     -0.64435400
| 11>  C     -3.01731800     -0.11951800      0.39258100
| 12>  C     -2.48947300      0.99768300     -0.16518700
| 13>  C     -2.81248600      1.41332600     -1.56975700
| 14> Fe      1.44834100      0.11820300      0.02354900
| 15> Cl      2.08555300      2.01257100     -0.85012800
| 16>  C     -1.59195600      1.94622100      0.56612500
| 17> Cl      2.59119200     -1.64891300     -0.58979800
| 18> Cl      1.17504000      0.19674700      2.20817900
| 19>  H     -3.74066100     -0.67670300     -0.20055000
| 20>  H     -2.15592200      2.86156600      0.79422700
| 21>  H     -1.19852400      1.55120600      1.50172900
| 22>  H     -0.75107800      2.25042800     -0.06704600
| 23>  H     -3.20541600      2.43792300     -1.56491300
| 24>  H     -1.89989100      1.43508600     -2.17935600
| 25>  H     -3.55576700      0.76813900     -2.04466800
| 26>  C     -2.99495400     -0.45287300      1.86270700
| 27>  H     -3.82248000      0.06155000      2.36925500
| 28>  H     -3.13528900     -1.52339100      2.03584300
| 29>  H     -2.06991300     -0.14754100      2.35779900
| 30>  C     -0.94116000     -2.16818100      0.45886100
| 31>  H     -1.82055300     -2.79774700      0.59779700
| 32>  H     -0.10470000     -2.80612400      0.13621000
| 33>  H     -0.64625600     -1.70024600      1.39751500
| 34>  C     -1.83712600     -1.64080300     -1.88134200
| 35>  H     -1.13807400     -2.33453500     -2.37048000
| 36>  H     -2.75303100     -2.18855300     -1.65539700
| 37>  H     -2.03042100     -0.82674300     -2.57717300
| 38> *
| 39>
| 40>
| 41>                          ****END OF INPUT****

CARTESIAN COORDINATES (ANGSTROEM)
---------------------------------
  O     -0.283018   -0.227464   -0.790145
  C     -1.123042   -1.166649   -0.644354
  C     -3.017318   -0.119518    0.392581
  C     -2.489473    0.997683   -0.165187
  C     -2.812486    1.413326   -1.569757
  Fe     1.448341    0.118203    0.023549
  Cl     2.085553    2.012571   -0.850128
  C     -1.591956    1.946221    0.566125
  Cl     2.591192   -1.648913   -0.589798
  Cl     1.175040    0.196747    2.208179
  H     -3.740661   -0.676703   -0.200550
  H     -2.155922    2.861566    0.794227
  H     -1.198524    1.551206    1.501729
  H     -0.751078    2.250428   -0.067046
  H     -3.205416    2.437923   -1.564913
  H     -1.899891    1.435086   -2.179356
  H     -3.555767    0.768139   -2.044668
  C     -2.994954   -0.452873    1.862707
  H     -3.822480    0.061550    2.369255
  H     -3.135289   -1.523391    2.035843
  H     -2.069913   -0.147541    2.357799
  C     -0.941160   -2.168181    0.458861
  H     -1.820553   -2.797747    0.597797
  H     -0.104700   -2.806124    0.136210
  H     -0.646256   -1.700246    1.397515
  C     -1.837126   -1.640803   -1.881342
  H     -1.138074   -2.334535   -2.370480
  H     -2.753031   -2.188553   -1.655397
  H     -2.030421   -0.826743   -2.577173

ORBITAL ENERGIES
----------------
                 SPIN UP ORBITALS
  NO   OCC          E(Eh)            E(eV)
   0   1.0000    -261.570654     -7117.6993
   1   1.0000    -104.790115     -2851.4840
   2   1.0000    -104.786913     -2851.3969
   3   1.0000    -104.785627     -2851.3619
   4   1.0000     -32.238413      -877.2518
   5   1.0000     -27.714764      -754.1571
   6   1.0000     -27.713826      -754.1315
   7   1.0000     -27.713657      -754.1270
   8   1.0000     -20.602583      -560.6248
   9   1.0000     -11.419065      -310.7285
  10   1.0000     -11.286288      -307.1155
  11   1.0000     -11.273860      -306.7773
  12   1.0000     -11.267572      -306.6062
  13   1.0000     -11.251636      -306.1726
  14   1.0000     -11.249395      -306.1116
  15   1.0000     -11.243414      -305.9489
  16   1.0000     -11.235902      -305.7444
  17   1.0000     -10.516807      -286.1769
  18   1.0000     -10.513579      -286.0890
  19   1.0000     -10.512245      -286.0527
  20   1.0000      -7.983654      -217.2463
  21   1.0000      -7.982870      -217.2249
  22   1.0000      -7.982827      -217.2238
  23   1.0000      -7.980458      -217.1593
  24   1.0000      -7.979672      -217.1379
  25   1.0000      -7.979608      -217.1362
  26   1.0000      -7.979040      -217.1207
  27   1.0000      -7.978365      -217.1024
  28   1.0000      -7.978312      -217.1009
  29   1.0000      -4.593403      -124.9928
  30   1.0000      -3.206422       -87.2512
  31   1.0000      -3.204945       -87.2110
  32   1.0000      -3.204743       -87.2055
  33   1.0000      -1.449967       -39.4556
  34   1.0000      -1.139072       -30.9957
  35   1.0000      -1.096975       -29.8502
  36   1.0000      -1.062696       -28.9174
  37   1.0000      -1.057042       -28.7636
  38   1.0000      -1.054490       -28.6941
  39   1.0000      -1.026867       -27.9425
  40   1.0000      -1.006534       -27.3892
  41   1.0000      -0.966933       -26.3116
  42   1.0000      -0.938145       -25.5282
  43   1.0000      -0.922438       -25.1008
  44   1.0000      -0.922351       -25.0984
  45   1.0000      -0.912078       -24.8189
  46   1.0000      -0.911514       -24.8036
  47   1.0000      -0.905537       -24.6409
  48   1.0000      -0.806727       -21.9522
  49   1.0000      -0.738728       -20.1018
  50   1.0000      -0.704401       -19.1677
  51   1.0000      -0.695784       -18.9333
  52   1.0000      -0.686494       -18.6805
  53   1.0000      -0.662972       -18.0404
  54   1.0000      -0.629463       -17.1286
  55   1.0000      -0.621392       -16.9089
  56   1.0000      -0.604495       -16.4492
  57   1.0000      -0.598744       -16.2927
  58   1.0000      -0.584284       -15.8992
  59   1.0000      -0.576137       -15.6775
  60   1.0000      -0.562412       -15.3040
  61   1.0000      -0.556109       -15.1325
  62   1.0000      -0.550676       -14.9846
  63   1.0000      -0.546441       -14.8694
  64   1.0000      -0.535389       -14.5687
  65   1.0000      -0.529111       -14.3978
  66   1.0000      -0.502303       -13.6684
  67   1.0000      -0.496792       -13.5184
  68   1.0000      -0.473839       -12.8938
  69   1.0000      -0.471414       -12.8278
  70   1.0000      -0.442681       -12.0460
  71   1.0000      -0.437282       -11.8991
  72   1.0000      -0.435646       -11.8545
  73   1.0000      -0.426909       -11.6168
  74   1.0000      -0.425789       -11.5863
  75   1.0000      -0.424836       -11.5604
  76   1.0000      -0.365317        -9.9408
  77   0.0000       0.012360         0.3363
  78   0.0000       0.022915         0.6235
  79   0.0000       0.023569         0.6413
  80   0.0000       0.030408         0.8274
  81   0.0000       0.038957         1.0601

                 SPIN DOWN ORBITALS
  NO   OCC          E(Eh)            E(eV)
   0   1.0000    -261.567086     -7117.6023
   1   1.0000    -104.788663     -2851.4445
   2   1.0000    -104.785386     -2851.3553
   3   1.0000    -104.784108     -2851.3205
   4   1.0000     -32.076391      -872.8430
   5   1.0000     -27.554302      -749.7907
   6   1.0000     -27.554267      -749.7897
   7   1.0000     -27.554082      -749.7847
   8   1.0000     -20.598759      -560.5207
   9   1.0000     -11.418966      -310.7259
  10   1.0000     -11.286270      -307.1150
  11   1.0000     -11.273749      -306.7743
  12   1.0000     -11.267562      -306.6060
  13   1.0000     -11.251563      -306.1706
  14   1.0000     -11.249396      -306.1116
  15   1.0000     -11.243421      -305.9491
  16   1.0000     -11.235925      -305.7451
  17   1.0000     -10.515252      -286.1346
  18   1.0000     -10.511947      -286.0446
  19   1.0000     -10.510630      -286.0088
  20   1.0000      -7.981155      -217.1783
  21   1.0000      -7.980484      -217.1600
  22   1.0000      -7.980432      -217.1586
  23   1.0000      -7.977829      -217.0878
  24   1.0000      -7.977165      -217.0697
  25   1.0000      -7.977072      -217.0672
  26   1.0000      -7.976616      -217.0548
  27   1.0000      -7.975768      -217.0317
  28   1.0000      -7.975686      -217.0294
  29   1.0000      -4.151206      -112.9601
  30   1.0000      -2.672797       -72.7305
  31   1.0000      -2.672769       -72.7297
  32   1.0000      -2.672205       -72.7144
  33   1.0000      -1.440409       -39.1955
  34   1.0000      -1.138634       -30.9838
  35   1.0000      -1.094474       -29.7821
  36   1.0000      -1.047492       -28.5037
  37   1.0000      -1.035110       -28.1668
  38   1.0000      -1.032351       -28.0917
  39   1.0000      -1.026414       -27.9301
  40   1.0000      -1.005738       -27.3675
  41   1.0000      -0.966814       -26.3083
  42   1.0000      -0.905941       -24.6519
  43   1.0000      -0.819765       -22.3069
  44   1.0000      -0.738803       -20.1039
  45   1.0000      -0.707029       -19.2392
  46   1.0000      -0.695029       -18.9127
  47   1.0000      -0.685490       -18.6531
  48   1.0000      -0.662847       -18.0370
  49   1.0000      -0.629381       -17.1263
  50   1.0000      -0.620881       -16.8950
  51   1.0000      -0.604113       -16.4388
  52   1.0000      -0.598686       -16.2911
  53   1.0000      -0.584021       -15.8920
  54   1.0000      -0.575336       -15.6557
  55   1.0000      -0.561805       -15.2875
  56   1.0000      -0.556032       -15.1304
  57   1.0000      -0.548315       -14.9204
  58   1.0000      -0.546171       -14.8621
  59   1.0000      -0.533819       -14.5259
  60   1.0000      -0.519070       -14.1246
  61   1.0000      -0.502216       -13.6660
  62   1.0000      -0.497419       -13.5355
  63   1.0000      -0.481137       -13.0924
  64   1.0000      -0.479193       -13.0395
  65   1.0000      -0.450281       -12.2528
  66   1.0000      -0.447402       -12.1744
  67   1.0000      -0.444794       -12.1035
  68   1.0000      -0.428777       -11.6676
  69   1.0000      -0.425850       -11.5880
  70   1.0000      -0.410463       -11.1693
  71   1.0000      -0.364231        -9.9112
  72   0.0000       0.012346         0.3359
  73   0.0000       0.022890         0.6229
  74   0.0000       0.023547         0.6407
  75   0.0000       0.030348         0.8258
  76   0.0000       0.038810         1.0561

E(0)                                       ...  -3028.448192102
E(0)                                       ...  -3028.448192102
E(CORR)(strong-pairs)                      ...     -2.871274323
E(CORR)(weak-pairs)                        ...     -0.036162649
E(CORR)(corrected)                         ...     -2.907436971
E(TOT)                                     ...  -3031.355629074
E(CCSD(T))                                 ...  -3031.474563525
FINAL SINGLE POINT ENERGY     -3031.474563525403

DIPOLE MOMENT
-------------
                                X             Y             Z
Electronic contribution:     42.52882       3.68282       1.94573
Nuclear contribution   :    -46.19710      -4.71481      -2.57347
                        -----------------------------------------
Total Dipole Moment    :     -3.66828      -1.03199      -0.62774
                        -----------------------------------------
Magnitude (a.u.)       :      3.86203
Magnitude (Debye)      :      9.81651

Rotational constants in cm-1:     0.019057     0.011062     0.010421
Rotational constants in MHz :   571.317086   331.619834   312.412333

                             ****ORCA TERMINATED NORMALLY****
TOTAL RUN TIME: 0 days 18 hours 34 minutes 51 seconds 286 msec
