                         Program Version 4.1.2  - RELEASE  -
|  1> ! aug-cc-pVTZ aug-cc-pVTZ/C DLPNO-CCSD(T1) TightSCF NormalPNO UNO MiniPrint AutoAux
|  2> %pal nproc 10 end
|  3> %maxcore 20000
|  4> %mdci
|  5>      density none
|  6> end
|  7>
|  8> * xyz 0 6
|  9>  O     -0.34733000     -0.16999400     -0.53968500
| 10>  C     -1.26529300     -1.15301700     -0.37080900
| 11>  C     -2.53660500     -0.47244900      0.52952100
| 12>  C     -2.64637800      0.82684300     -0.06720500
| 13>  C     -3.49230400      1.04663900     -1.26587100
| 14> Fe      1.41597800      0.15532400     -0.06404400
| 15> Cl      1.63066000      2.25393400     -0.76230800
| 16>  C     -1.87970600      1.96956400      0.41657200
| 17> Cl      2.69486900     -1.34943600     -1.02860500
| 18> Cl      1.49534600      0.06895100      2.15774300
| 19>  H     -3.39345400     -1.09789500      0.26457500
| 20>  H     -2.26249900      2.93019300      0.06618700
| 21>  H     -1.70125900      1.96735200      1.49269700
| 22>  H     -0.87804200      1.82301400     -0.04784400
| 23>  H     -4.26081300      1.78793900     -1.00171100
| 24>  H     -2.89590100      1.50777200     -2.06494400
| 25>  H     -3.98143600      0.14431600     -1.63077000
| 26>  C     -2.24052500     -0.49721600      2.03224300
| 27>  H     -2.96593100      0.12091700      2.57181100
| 28>  H     -2.32800300     -1.51620300      2.41280400
| 29>  H     -1.23430500     -0.13700900      2.25776100
| 30>  C     -0.74613300     -2.35268400      0.43147100
| 31>  H     -1.53214400     -3.09151900      0.61654600
| 32>  H      0.03744000     -2.82029100     -0.17454800
| 33>  H     -0.29555800     -2.04844700      1.37611900
| 34>  C     -1.79479700     -1.62505100     -1.73161300
| 35>  H     -0.98010600     -2.16262600     -2.22589800
| 36>  H     -2.64905500     -2.30339900     -1.63453800
| 37>  H     -2.06017600     -0.78698700     -2.37759300
| 38> *
| 39>
| 40>
| 41>                          ****END OF INPUT****

CARTESIAN COORDINATES (ANGSTROEM)
---------------------------------
  O     -0.347330   -0.169994   -0.539685
  C     -1.265293   -1.153017   -0.370809
  C     -2.536605   -0.472449    0.529521
  C     -2.646378    0.826843   -0.067205
  C     -3.492304    1.046639   -1.265871
  Fe     1.415978    0.155324   -0.064044
  Cl     1.630660    2.253934   -0.762308
  C     -1.879706    1.969564    0.416572
  Cl     2.694869   -1.349436   -1.028605
  Cl     1.495346    0.068951    2.157743
  H     -3.393454   -1.097895    0.264575
  H     -2.262499    2.930193    0.066187
  H     -1.701259    1.967352    1.492697
  H     -0.878042    1.823014   -0.047844
  H     -4.260813    1.787939   -1.001711
  H     -2.895901    1.507772   -2.064944
  H     -3.981436    0.144316   -1.630770
  C     -2.240525   -0.497216    2.032243
  H     -2.965931    0.120917    2.571811
  H     -2.328003   -1.516203    2.412804
  H     -1.234305   -0.137009    2.257761
  C     -0.746133   -2.352684    0.431471
  H     -1.532144   -3.091519    0.616546
  H      0.037440   -2.820291   -0.174548
  H     -0.295558   -2.048447    1.376119
  C     -1.794797   -1.625051   -1.731613
  H     -0.980106   -2.162626   -2.225898
  H     -2.649055   -2.303399   -1.634538
  H     -2.060176   -0.786987   -2.377593

ORBITAL ENERGIES
----------------
                 SPIN UP ORBITALS
  NO   OCC          E(Eh)            E(eV)
   0   1.0000    -261.540831     -7116.8878
   1   1.0000    -104.769944     -2850.9351
   2   1.0000    -104.769478     -2850.9224
   3   1.0000    -104.766835     -2850.8505
   4   1.0000     -32.208761      -876.4449
   5   1.0000     -27.684626      -753.3370
   6   1.0000     -27.684525      -753.3342
   7   1.0000     -27.684200      -753.3254
   8   1.0000     -20.533513      -558.7453
   9   1.0000     -11.403209      -310.2971
  10   1.0000     -11.347022      -308.7682
  11   1.0000     -11.303626      -307.5873
  12   1.0000     -11.289394      -307.2000
  13   1.0000     -11.275741      -306.8285
  14   1.0000     -11.253989      -306.2366
  15   1.0000     -11.242013      -305.9107
  16   1.0000     -11.232891      -305.6625
  17   1.0000     -10.496524      -285.6249
  18   1.0000     -10.495979      -285.6101
  19   1.0000     -10.493404      -285.5400
  20   1.0000      -7.963421      -216.6957
  21   1.0000      -7.962818      -216.6793
  22   1.0000      -7.962559      -216.6723
  23   1.0000      -7.962498      -216.6706
  24   1.0000      -7.962053      -216.6585
  25   1.0000      -7.961955      -216.6558
  26   1.0000      -7.960196      -216.6080
  27   1.0000      -7.959519      -216.5895
  28   1.0000      -7.959436      -216.5873
  29   1.0000      -4.564283      -124.2005
  30   1.0000      -3.176763       -86.4441
  31   1.0000      -3.176481       -86.4364
  32   1.0000      -3.175931       -86.4215
  33   1.0000      -1.368170       -37.2298
  34   1.0000      -1.200248       -32.6604
  35   1.0000      -1.089668       -29.6514
  36   1.0000      -1.045260       -28.4430
  37   1.0000      -1.040553       -28.3149
  38   1.0000      -1.035484       -28.1769
  39   1.0000      -1.033392       -28.1200
  40   1.0000      -1.018755       -27.7217
  41   1.0000      -0.967568       -26.3289
  42   1.0000      -0.934082       -25.4177
  43   1.0000      -0.905486       -24.6395
  44   1.0000      -0.893941       -24.3254
  45   1.0000      -0.893812       -24.3219
  46   1.0000      -0.885803       -24.1039
  47   1.0000      -0.885672       -24.1004
  48   1.0000      -0.800691       -21.7879
  49   1.0000      -0.766261       -20.8510
  50   1.0000      -0.713328       -19.4107
  51   1.0000      -0.696053       -18.9406
  52   1.0000      -0.678819       -18.4716
  53   1.0000      -0.646468       -17.5913
  54   1.0000      -0.644854       -17.5474
  55   1.0000      -0.629043       -17.1171
  56   1.0000      -0.608423       -16.5560
  57   1.0000      -0.601658       -16.3719
  58   1.0000      -0.589411       -16.0387
  59   1.0000      -0.587864       -15.9966
  60   1.0000      -0.571282       -15.5454
  61   1.0000      -0.560442       -15.2504
  62   1.0000      -0.555682       -15.1209
  63   1.0000      -0.537162       -14.6169
  64   1.0000      -0.527760       -14.3611
  65   1.0000      -0.520525       -14.1642
  66   1.0000      -0.502375       -13.6703
  67   1.0000      -0.464576       -12.6418
  68   1.0000      -0.459761       -12.5107
  69   1.0000      -0.441525       -12.0145
  70   1.0000      -0.427869       -11.6429
  71   1.0000      -0.420556       -11.4439
  72   1.0000      -0.415967       -11.3190
  73   1.0000      -0.410666       -11.1748
  74   1.0000      -0.407869       -11.0987
  75   1.0000      -0.407212       -11.0808
  76   1.0000      -0.406669       -11.0660
  77   0.0000      -0.001618        -0.0440
  78   0.0000       0.002998         0.0816
  79   0.0000       0.017840         0.4854
  80   0.0000       0.019067         0.5188
  81   0.0000       0.028648         0.7795

                 SPIN DOWN ORBITALS
  NO   OCC          E(Eh)            E(eV)
   0   1.0000    -261.537284     -7116.7913
   1   1.0000    -104.768606     -2850.8987
   2   1.0000    -104.768179     -2850.8871
   3   1.0000    -104.765431     -2850.8123
   4   1.0000     -32.046732      -872.0359
   5   1.0000     -27.524870      -748.9898
   6   1.0000     -27.524630      -748.9833
   7   1.0000     -27.524087      -748.9685
   8   1.0000     -20.527415      -558.5794
   9   1.0000     -11.403228      -310.2976
  10   1.0000     -11.346892      -308.7646
  11   1.0000     -11.303624      -307.5873
  12   1.0000     -11.289228      -307.1955
  13   1.0000     -11.275773      -306.8294
  14   1.0000     -11.254008      -306.2371
  15   1.0000     -11.241903      -305.9077
  16   1.0000     -11.232845      -305.6612
  17   1.0000     -10.495081      -285.5857
  18   1.0000     -10.494583      -285.5721
  19   1.0000     -10.491901      -285.4991
  20   1.0000      -7.960942      -216.6283
  21   1.0000      -7.960501      -216.6163
  22   1.0000      -7.960468      -216.6154
  23   1.0000      -7.960392      -216.6133
  24   1.0000      -7.959969      -216.6018
  25   1.0000      -7.959863      -216.5989
  26   1.0000      -7.957901      -216.5455
  27   1.0000      -7.957141      -216.5248
  28   1.0000      -7.957072      -216.5229
  29   1.0000      -4.122144      -112.1693
  30   1.0000      -2.644077       -71.9490
  31   1.0000      -2.643998       -71.9468
  32   1.0000      -2.643087       -71.9221
  33   1.0000      -1.352609       -36.8064
  34   1.0000      -1.199195       -32.6318
  35   1.0000      -1.087074       -29.5808
  36   1.0000      -1.044030       -28.4095
  37   1.0000      -1.026599       -27.9352
  38   1.0000      -1.018553       -27.7162
  39   1.0000      -1.015483       -27.6327
  40   1.0000      -1.013630       -27.5823
  41   1.0000      -0.966705       -26.3054
  42   1.0000      -0.933130       -25.3918
  43   1.0000      -0.805186       -21.9102
  44   1.0000      -0.774046       -21.0629
  45   1.0000      -0.714147       -19.4329
  46   1.0000      -0.695362       -18.9218
  47   1.0000      -0.679179       -18.4814
  48   1.0000      -0.647873       -17.6295
  49   1.0000      -0.644904       -17.5487
  50   1.0000      -0.627405       -17.0725
  51   1.0000      -0.608524       -16.5588
  52   1.0000      -0.601956       -16.3801
  53   1.0000      -0.588389       -16.0109
  54   1.0000      -0.587573       -15.9887
  55   1.0000      -0.569784       -15.5046
  56   1.0000      -0.560277       -15.2459
  57   1.0000      -0.554838       -15.0979
  58   1.0000      -0.536396       -14.5961
  59   1.0000      -0.526047       -14.3145
  60   1.0000      -0.515793       -14.0354
  61   1.0000      -0.496539       -13.5115
  62   1.0000      -0.463990       -12.6258
  63   1.0000      -0.460907       -12.5419
  64   1.0000      -0.446863       -12.1598
  65   1.0000      -0.434673       -11.8280
  66   1.0000      -0.431269       -11.7354
  67   1.0000      -0.427348       -11.6287
  68   1.0000      -0.426141       -11.5959
  69   1.0000      -0.406255       -11.0548
  70   1.0000      -0.395908       -10.7732
  71   1.0000      -0.394107       -10.7242
  72   0.0000      -0.001879        -0.0511
  73   0.0000       0.002986         0.0813
  74   0.0000       0.017837         0.4854
  75   0.0000       0.019054         0.5185
  76   0.0000       0.028669         0.7801

E(0)                                       ...  -3028.424926552
E(0)                                       ...  -3028.424926552
E(CORR)(strong-pairs)                      ...     -2.871808154
E(CORR)(weak-pairs)                        ...     -0.035736091
E(CORR)(corrected)                         ...     -2.907544245
E(TOT)                                     ...  -3031.332470797
E(CCSD(T))                                 ...  -3031.450649589
FINAL SINGLE POINT ENERGY     -3031.450649588772

DIPOLE MOMENT
-------------
                                X             Y             Z
Electronic contribution:     39.92122       7.42093       0.14051
Nuclear contribution   :    -45.41301      -7.39268      -0.37350
                        -----------------------------------------
Total Dipole Moment    :     -5.49180       0.02825      -0.23299
                        -----------------------------------------
Magnitude (a.u.)       :      5.49681
Magnitude (Debye)      :     13.97178

Rotational constants in cm-1:     0.019206     0.011295     0.010547
Rotational constants in MHz :   575.791044   338.621795   316.189256

                             ****ORCA TERMINATED NORMALLY****
TOTAL RUN TIME: 0 days 19 hours 28 minutes 54 seconds 657 msec
