                         Program Version 4.1.2  - RELEASE  -
|  1> ! aug-cc-pVTZ aug-cc-pVTZ/C DLPNO-CCSD(T1) TightSCF NormalPNO UNO MiniPrint AutoAux
|  2> %pal nproc 10 end
|  3> %maxcore 20000
|  4> %mdci
|  5>      density none
|  6> end
|  7>
|  8> * xyz 0 6
|  9>  O     -0.33423600     -0.16700700     -0.68285000
| 10>  C     -1.29711300     -1.10009400     -0.54138400
| 11>  C     -2.74217700     -0.28326500      0.27536500
| 12>  C     -2.35360200      1.01050500     -0.13917500
| 13>  C     -2.69359900      1.54290600     -1.48086900
| 14> Fe      1.38195900      0.09658500     -0.00895300
| 15> Cl      1.87712300      2.12398100     -0.73268200
| 16>  C     -1.57287800      1.91205900      0.73315400
| 17> Cl      2.65323600     -1.54072000     -0.74244100
| 18> Cl      1.17126400      0.05294400      2.21770400
| 19>  H     -3.57256200     -0.69374700     -0.29862100
| 20>  H     -2.31267500      2.54291200      1.25626800
| 21>  H     -0.99350700      1.38950400      1.49381900
| 22>  H     -0.91940900      2.57136200      0.15571700
| 23>  H     -3.03520500      2.58079100     -1.38382400
| 24>  H     -1.76168400      1.58217500     -2.06257500
| 25>  H     -3.44316600      0.95602000     -2.01210300
| 26>  C     -2.82551200     -0.58906600      1.76427400
| 27>  H     -3.61668200      0.01323400      2.22579900
| 28>  H     -3.07747800     -1.63960400      1.92227200
| 29>  H     -1.89109000     -0.38367900      2.29051100
| 30>  C     -0.92917700     -2.26441600      0.36482300
| 31>  H     -1.75016800     -2.97697000      0.47872700
| 32>  H     -0.09147100     -2.77402000     -0.12817600
| 33>  H     -0.57950800     -1.93337900      1.34238100
| 34>  C     -1.81825600     -1.57843500     -1.89248900
| 35>  H     -0.98846800     -2.10614600     -2.37606100
| 36>  H     -2.66009800     -2.26897800     -1.78875000
| 37>  H     -2.09756200     -0.75127300     -2.54587900
| 38> *
| 39>
| 40>
| 41>                          ****END OF INPUT****

CARTESIAN COORDINATES (ANGSTROEM)
---------------------------------
  O     -0.334236   -0.167007   -0.682850
  C     -1.297113   -1.100094   -0.541384
  C     -2.742177   -0.283265    0.275365
  C     -2.353602    1.010505   -0.139175
  C     -2.693599    1.542906   -1.480869
  Fe     1.381959    0.096585   -0.008953
  Cl     1.877123    2.123981   -0.732682
  C     -1.572878    1.912059    0.733154
  Cl     2.653236   -1.540720   -0.742441
  Cl     1.171264    0.052944    2.217704
  H     -3.572562   -0.693747   -0.298621
  H     -2.312675    2.542912    1.256268
  H     -0.993507    1.389504    1.493819
  H     -0.919409    2.571362    0.155717
  H     -3.035205    2.580791   -1.383824
  H     -1.761684    1.582175   -2.062575
  H     -3.443166    0.956020   -2.012103
  C     -2.825512   -0.589066    1.764274
  H     -3.616682    0.013234    2.225799
  H     -3.077478   -1.639604    1.922272
  H     -1.891090   -0.383679    2.290511
  C     -0.929177   -2.264416    0.364823
  H     -1.750168   -2.976970    0.478727
  H     -0.091471   -2.774020   -0.128176
  H     -0.579508   -1.933379    1.342381
  C     -1.818256   -1.578435   -1.892489
  H     -0.988468   -2.106146   -2.376061
  H     -2.660098   -2.268978   -1.788750
  H     -2.097562   -0.751273   -2.545879

ORBITAL ENERGIES
----------------
                 SPIN UP ORBITALS
  NO   OCC          E(Eh)            E(eV)
   0   1.0000    -261.547050     -7117.0571
   1   1.0000    -104.775441     -2851.0847
   2   1.0000    -104.772454     -2851.0034
   3   1.0000    -104.770188     -2850.9418
   4   1.0000     -32.214957      -876.6135
   5   1.0000     -27.690843      -753.5062
   6   1.0000     -27.690682      -753.5018
   7   1.0000     -27.690426      -753.4948
   8   1.0000     -20.544766      -559.0515
   9   1.0000     -11.385991      -309.8286
  10   1.0000     -11.368913      -309.3639
  11   1.0000     -11.286734      -307.1277
  12   1.0000     -11.284247      -307.0600
  13   1.0000     -11.270508      -306.6861
  14   1.0000     -11.257065      -306.3203
  15   1.0000     -11.248324      -306.0825
  16   1.0000     -11.239447      -305.8409
  17   1.0000     -10.502008      -285.7742
  18   1.0000     -10.498995      -285.6922
  19   1.0000     -10.496756      -285.6313
  20   1.0000      -7.968912      -216.8451
  21   1.0000      -7.968015      -216.8207
  22   1.0000      -7.967973      -216.8196
  23   1.0000      -7.965818      -216.7609
  24   1.0000      -7.965091      -216.7411
  25   1.0000      -7.965003      -216.7388
  26   1.0000      -7.963575      -216.6999
  27   1.0000      -7.962861      -216.6805
  28   1.0000      -7.962785      -216.6784
  29   1.0000      -4.570374      -124.3662
  30   1.0000      -3.182859       -86.6100
  31   1.0000      -3.182508       -86.6004
  32   1.0000      -3.182020       -86.5872
  33   1.0000      -1.379716       -37.5440
  34   1.0000      -1.187630       -32.3171
  35   1.0000      -1.085169       -29.5290
  36   1.0000      -1.045482       -28.4490
  37   1.0000      -1.044188       -28.4138
  38   1.0000      -1.039823       -28.2950
  39   1.0000      -1.037185       -28.2232
  40   1.0000      -1.010056       -27.4850
  41   1.0000      -0.974317       -26.5125
  42   1.0000      -0.934395       -25.4262
  43   1.0000      -0.911139       -24.7933
  44   1.0000      -0.899941       -24.4886
  45   1.0000      -0.899793       -24.4846
  46   1.0000      -0.891695       -24.2643
  47   1.0000      -0.891055       -24.2468
  48   1.0000      -0.788055       -21.4441
  49   1.0000      -0.765920       -20.8417
  50   1.0000      -0.705504       -19.1977
  51   1.0000      -0.692266       -18.8375
  52   1.0000      -0.673922       -18.3383
  53   1.0000      -0.649348       -17.6697
  54   1.0000      -0.643480       -17.5100
  55   1.0000      -0.627727       -17.0813
  56   1.0000      -0.600833       -16.3495
  57   1.0000      -0.596948       -16.2438
  58   1.0000      -0.592825       -16.1316
  59   1.0000      -0.580588       -15.7986
  60   1.0000      -0.578463       -15.7408
  61   1.0000      -0.559844       -15.2341
  62   1.0000      -0.556751       -15.1500
  63   1.0000      -0.544060       -14.8046
  64   1.0000      -0.533637       -14.5210
  65   1.0000      -0.528914       -14.3925
  66   1.0000      -0.508922       -13.8485
  67   1.0000      -0.471033       -12.8175
  68   1.0000      -0.460077       -12.5193
  69   1.0000      -0.449170       -12.2225
  70   1.0000      -0.425243       -11.5715
  71   1.0000      -0.424549       -11.5526
  72   1.0000      -0.421814       -11.4781
  73   1.0000      -0.413074       -11.2403
  74   1.0000      -0.412126       -11.2145
  75   1.0000      -0.410414       -11.1679
  76   1.0000      -0.399590       -10.8734
  77   0.0000       0.006360         0.1731
  78   0.0000       0.015788         0.4296
  79   0.0000       0.020102         0.5470
  80   0.0000       0.020480         0.5573
  81   0.0000       0.030440         0.8283

                 SPIN DOWN ORBITALS
  NO   OCC          E(Eh)            E(eV)
   0   1.0000    -261.543508     -7116.9607
   1   1.0000    -104.774139     -2851.0493
   2   1.0000    -104.771117     -2850.9670
   3   1.0000    -104.768759     -2850.9029
   4   1.0000     -32.052898      -872.2037
   5   1.0000     -27.530992      -749.1564
   6   1.0000     -27.530827      -749.1519
   7   1.0000     -27.530285      -749.1371
   8   1.0000     -20.539035      -558.8956
   9   1.0000     -11.385989      -309.8285
  10   1.0000     -11.368838      -309.3618
  11   1.0000     -11.286731      -307.1276
  12   1.0000     -11.284034      -307.0542
  13   1.0000     -11.270536      -306.6869
  14   1.0000     -11.257086      -306.3209
  15   1.0000     -11.248215      -306.0795
  16   1.0000     -11.239409      -305.8399
  17   1.0000     -10.500603      -285.7359
  18   1.0000     -10.497562      -285.6532
  19   1.0000     -10.495226      -285.5896
  20   1.0000      -7.966438      -216.7778
  21   1.0000      -7.966028      -216.7667
  22   1.0000      -7.965947      -216.7644
  23   1.0000      -7.963533      -216.6988
  24   1.0000      -7.962887      -216.6812
  25   1.0000      -7.962797      -216.6787
  26   1.0000      -7.961189      -216.6350
  27   1.0000      -7.960469      -216.6154
  28   1.0000      -7.960396      -216.6134
  29   1.0000      -4.128109      -112.3316
  30   1.0000      -2.649959       -72.1091
  31   1.0000      -2.649883       -72.1070
  32   1.0000      -2.649028       -72.0837
  33   1.0000      -1.364926       -37.1415
  34   1.0000      -1.186607       -32.2892
  35   1.0000      -1.082565       -29.4581
  36   1.0000      -1.042773       -28.3753
  37   1.0000      -1.031668       -28.0731
  38   1.0000      -1.020406       -27.7667
  39   1.0000      -1.017092       -27.6765
  40   1.0000      -1.009616       -27.4730
  41   1.0000      -0.973481       -26.4898
  42   1.0000      -0.932956       -25.3870
  43   1.0000      -0.795640       -21.6505
  44   1.0000      -0.770863       -20.9762
  45   1.0000      -0.705924       -19.2092
  46   1.0000      -0.691361       -18.8129
  47   1.0000      -0.674877       -18.3643
  48   1.0000      -0.651446       -17.7268
  49   1.0000      -0.642028       -17.4705
  50   1.0000      -0.626919       -17.0593
  51   1.0000      -0.600903       -16.3514
  52   1.0000      -0.595854       -16.2140
  53   1.0000      -0.592885       -16.1332
  54   1.0000      -0.580770       -15.8036
  55   1.0000      -0.577322       -15.7097
  56   1.0000      -0.559200       -15.2166
  57   1.0000      -0.556421       -15.1410
  58   1.0000      -0.543334       -14.7849
  59   1.0000      -0.528718       -14.3872
  60   1.0000      -0.527352       -14.3500
  61   1.0000      -0.501228       -13.6391
  62   1.0000      -0.469985       -12.7890
  63   1.0000      -0.463892       -12.6231
  64   1.0000      -0.457111       -12.4386
  65   1.0000      -0.435342       -11.8463
  66   1.0000      -0.432229       -11.7615
  67   1.0000      -0.430798       -11.7226
  68   1.0000      -0.423896       -11.5348
  69   1.0000      -0.410465       -11.1693
  70   1.0000      -0.398373       -10.8403
  71   1.0000      -0.391862       -10.6631
  72   0.0000       0.006356         0.1730
  73   0.0000       0.015564         0.4235
  74   0.0000       0.020095         0.5468
  75   0.0000       0.020460         0.5568
  76   0.0000       0.030465         0.8290

E(0)                                       ...  -3028.425273944
E(0)                                       ...  -3028.425273944
E(CORR)(strong-pairs)                      ...     -2.871814720
E(CORR)(weak-pairs)                        ...     -0.035832080
E(CORR)(corrected)                         ...     -2.907646800
E(TOT)                                     ...  -3031.332920744
E(CCSD(T))                                 ...  -3031.451748350
FINAL SINGLE POINT ENERGY     -3031.451748350109

DIPOLE MOMENT
-------------
                                X             Y             Z
Electronic contribution:     39.62289       5.14725       1.92499
Nuclear contribution   :    -44.55405      -4.98546      -2.37933
                        -----------------------------------------
Total Dipole Moment    :     -4.93116       0.16179      -0.45434
                        -----------------------------------------
Magnitude (a.u.)       :      4.95469
Magnitude (Debye)      :     12.59382

Rotational constants in cm-1:     0.019029     0.011734     0.010866
Rotational constants in MHz :   570.460261   351.785965   325.760054

                             ****ORCA TERMINATED NORMALLY****
TOTAL RUN TIME: 0 days 20 hours 35 minutes 43 seconds 209 msec
