                         Program Version 4.1.2  - RELEASE  -
|  1> ! aug-cc-pVTZ aug-cc-pVTZ/C DLPNO-CCSD(T1) TightSCF NormalPNO UNO MiniPrint AutoAux
|  2> %pal nproc 10 end
|  3> %maxcore 20000
|  4> %mdci
|  5>      density none
|  6> end
|  7>
|  8> * xyz 0 6
|  9>  O      0.17925700      0.35984300     -0.83523600
| 10>  C      1.03286900      1.27131800     -0.63778000
| 11>  C      2.88817100      0.29091000      0.62680200
| 12>  C      2.80904400     -0.86779100     -0.07554000
| 13>  C      3.53771300     -1.05763500     -1.37448900
| 14> Fe     -1.50897900     -0.17752300     -0.02364100
| 15> Cl     -2.00978300     -2.03760200     -1.04228200
| 16>  C      1.93076700     -2.01058800      0.33291600
| 17> Cl     -2.78330900      1.54589500     -0.46430700
| 18> Cl     -1.16750600     -0.43980400      2.13127900
| 19>  H      3.58040600      1.04482600      0.25334200
| 20>  H      2.47525200     -2.96080100      0.27475400
| 21>  H      1.51333300     -1.90515300      1.33432300
| 22>  H      1.09129700     -2.09007900     -0.37404900
| 23>  H      4.22240800     -1.91175900     -1.29019200
| 24>  H      2.84028400     -1.30360100     -2.18685500
| 25>  H      4.12594900     -0.18166800     -1.65944000
| 26>  C      2.48600400      0.44418700      2.07562600
| 27>  H      3.20532000     -0.08595500      2.71320000
| 28>  H      2.50182600      1.49170100      2.38532400
| 29>  H      1.49502000      0.04234100      2.29572800
| 30>  C      0.78320000      2.29466700      0.43284200
| 31>  H      1.66535000      2.89656800      0.65332500
| 32>  H      0.00349700      2.95405300      0.02363500
| 33>  H      0.38249800      1.84768100      1.34237500
| 34>  C      1.85730400      1.68558000     -1.82625000
| 35>  H      1.23076200      2.39036600     -2.39150700
| 36>  H      2.77592900      2.20209600     -1.54599000
| 37>  H      2.06997100      0.83804000     -2.47591800
| 38> *
| 39>
| 40>
| 41>                          ****END OF INPUT****

CARTESIAN COORDINATES (ANGSTROEM)
---------------------------------
  O      0.179257    0.359843   -0.835236
  C      1.032869    1.271318   -0.637780
  C      2.888171    0.290910    0.626802
  C      2.809044   -0.867791   -0.075540
  C      3.537713   -1.057635   -1.374489
  Fe    -1.508979   -0.177523   -0.023641
  Cl    -2.009783   -2.037602   -1.042282
  C      1.930767   -2.010588    0.332916
  Cl    -2.783309    1.545895   -0.464307
  Cl    -1.167506   -0.439804    2.131279
  H      3.580406    1.044826    0.253342
  H      2.475252   -2.960801    0.274754
  H      1.513333   -1.905153    1.334323
  H      1.091297   -2.090079   -0.374049
  H      4.222408   -1.911759   -1.290192
  H      2.840284   -1.303601   -2.186855
  H      4.125949   -0.181668   -1.659440
  C      2.486004    0.444187    2.075626
  H      3.205320   -0.085955    2.713200
  H      2.501826    1.491701    2.385324
  H      1.495020    0.042341    2.295728
  C      0.783200    2.294667    0.432842
  H      1.665350    2.896568    0.653325
  H      0.003497    2.954053    0.023635
  H      0.382498    1.847681    1.342375
  C      1.857304    1.685580   -1.826250
  H      1.230762    2.390366   -2.391507
  H      2.775929    2.202096   -1.545990
  H      2.069971    0.838040   -2.475918

ORBITAL ENERGIES
----------------
                 SPIN UP ORBITALS
  NO   OCC          E(Eh)            E(eV)
   0   1.0000    -261.570868     -7117.7052
   1   1.0000    -104.791109     -2851.5111
   2   1.0000    -104.787412     -2851.4104
   3   1.0000    -104.784878     -2851.3415
   4   1.0000     -32.238639      -877.2580
   5   1.0000     -27.715051      -754.1649
   6   1.0000     -27.714029      -754.1371
   7   1.0000     -27.713817      -754.1313
   8   1.0000     -20.611961      -560.8800
   9   1.0000     -11.419508      -310.7406
  10   1.0000     -11.281883      -306.9957
  11   1.0000     -11.275077      -306.8104
  12   1.0000     -11.270998      -306.6995
  13   1.0000     -11.251628      -306.1724
  14   1.0000     -11.250513      -306.1420
  15   1.0000     -11.236957      -305.7731
  16   1.0000     -11.236588      -305.7631
  17   1.0000     -10.517832      -286.2048
  18   1.0000     -10.514087      -286.1029
  19   1.0000     -10.511505      -286.0326
  20   1.0000      -7.984669      -217.2739
  21   1.0000      -7.983899      -217.2529
  22   1.0000      -7.983864      -217.2520
  23   1.0000      -7.980945      -217.1725
  24   1.0000      -7.980191      -217.1520
  25   1.0000      -7.980139      -217.1506
  26   1.0000      -7.978310      -217.1009
  27   1.0000      -7.977638      -217.0826
  28   1.0000      -7.977571      -217.0807
  29   1.0000      -4.593655      -124.9997
  30   1.0000      -3.206808       -87.2617
  31   1.0000      -3.205128       -87.2160
  32   1.0000      -3.204925       -87.2104
  33   1.0000      -1.454136       -39.5691
  34   1.0000      -1.135422       -30.8964
  35   1.0000      -1.096618       -29.8405
  36   1.0000      -1.063629       -28.9428
  37   1.0000      -1.057671       -28.7807
  38   1.0000      -1.054163       -28.6852
  39   1.0000      -1.024572       -27.8800
  40   1.0000      -1.007150       -27.4060
  41   1.0000      -0.966389       -26.2968
  42   1.0000      -0.939337       -25.5607
  43   1.0000      -0.922725       -25.1086
  44   1.0000      -0.922538       -25.1035
  45   1.0000      -0.912225       -24.8229
  46   1.0000      -0.911448       -24.8018
  47   1.0000      -0.901072       -24.5194
  48   1.0000      -0.809876       -22.0379
  49   1.0000      -0.737985       -20.0816
  50   1.0000      -0.706228       -19.2174
  51   1.0000      -0.696463       -18.9517
  52   1.0000      -0.682071       -18.5601
  53   1.0000      -0.660865       -17.9831
  54   1.0000      -0.627332       -17.0706
  55   1.0000      -0.621153       -16.9024
  56   1.0000      -0.606205       -16.4957
  57   1.0000      -0.598275       -16.2799
  58   1.0000      -0.584485       -15.9047
  59   1.0000      -0.576132       -15.6774
  60   1.0000      -0.561509       -15.2794
  61   1.0000      -0.558681       -15.2025
  62   1.0000      -0.546593       -14.8736
  63   1.0000      -0.545487       -14.8435
  64   1.0000      -0.534652       -14.5486
  65   1.0000      -0.529097       -14.3975
  66   1.0000      -0.501632       -13.6501
  67   1.0000      -0.497792       -13.5456
  68   1.0000      -0.474513       -12.9122
  69   1.0000      -0.472231       -12.8501
  70   1.0000      -0.443556       -12.0698
  71   1.0000      -0.437713       -11.9108
  72   1.0000      -0.435462       -11.8495
  73   1.0000      -0.427333       -11.6283
  74   1.0000      -0.425923       -11.5900
  75   1.0000      -0.424446       -11.5498
  76   1.0000      -0.364429        -9.9166
  77   0.0000       0.012098         0.3292
  78   0.0000       0.022618         0.6155
  79   0.0000       0.023691         0.6447
  80   0.0000       0.030011         0.8166
  81   0.0000       0.038800         1.0558

                 SPIN DOWN ORBITALS
  NO   OCC          E(Eh)            E(eV)
   0   1.0000    -261.567289     -7117.6078
   1   1.0000    -104.789632     -2851.4709
   2   1.0000    -104.785870     -2851.3685
   3   1.0000    -104.783333     -2851.2994
   4   1.0000     -32.076617      -872.8491
   5   1.0000     -27.554532      -749.7969
   6   1.0000     -27.554469      -749.7952
   7   1.0000     -27.554334      -749.7915
   8   1.0000     -20.608239      -560.7787
   9   1.0000     -11.419404      -310.7378
  10   1.0000     -11.281810      -306.9937
  11   1.0000     -11.274969      -306.8075
  12   1.0000     -11.270983      -306.6991
  13   1.0000     -11.251639      -306.1727
  14   1.0000     -11.250543      -306.1428
  15   1.0000     -11.236950      -305.7730
  16   1.0000     -11.236607      -305.7636
  17   1.0000     -10.516252      -286.1618
  18   1.0000     -10.512441      -286.0581
  19   1.0000     -10.509862      -285.9879
  20   1.0000      -7.982158      -217.2056
  21   1.0000      -7.981456      -217.1865
  22   1.0000      -7.981412      -217.1853
  23   1.0000      -7.978348      -217.1019
  24   1.0000      -7.977630      -217.0824
  25   1.0000      -7.977545      -217.0800
  26   1.0000      -7.975840      -217.0336
  27   1.0000      -7.974993      -217.0106
  28   1.0000      -7.974903      -217.0081
  29   1.0000      -4.151496      -112.9680
  30   1.0000      -2.673105       -72.7389
  31   1.0000      -2.673028       -72.7368
  32   1.0000      -2.672572       -72.7244
  33   1.0000      -1.444913       -39.3181
  34   1.0000      -1.135061       -30.8866
  35   1.0000      -1.093993       -29.7691
  36   1.0000      -1.048023       -28.5181
  37   1.0000      -1.035619       -28.1806
  38   1.0000      -1.031757       -28.0755
  39   1.0000      -1.023954       -27.8632
  40   1.0000      -1.006569       -27.3901
  41   1.0000      -0.966329       -26.2951
  42   1.0000      -0.901261       -24.5246
  43   1.0000      -0.824264       -22.4294
  44   1.0000      -0.738076       -20.0841
  45   1.0000      -0.708571       -19.2812
  46   1.0000      -0.695465       -18.9246
  47   1.0000      -0.681465       -18.5436
  48   1.0000      -0.660792       -17.9811
  49   1.0000      -0.627310       -17.0700
  50   1.0000      -0.620690       -16.8898
  51   1.0000      -0.605848       -16.4860
  52   1.0000      -0.598107       -16.2753
  53   1.0000      -0.584121       -15.8947
  54   1.0000      -0.574397       -15.6301
  55   1.0000      -0.561253       -15.2725
  56   1.0000      -0.558515       -15.1980
  57   1.0000      -0.546433       -14.8692
  58   1.0000      -0.544125       -14.8064
  59   1.0000      -0.530387       -14.4326
  60   1.0000      -0.521156       -14.1814
  61   1.0000      -0.502112       -13.6632
  62   1.0000      -0.498873       -13.5750
  63   1.0000      -0.482055       -13.1174
  64   1.0000      -0.478862       -13.0305
  65   1.0000      -0.451666       -12.2905
  66   1.0000      -0.447540       -12.1782
  67   1.0000      -0.444924       -12.1070
  68   1.0000      -0.429131       -11.6773
  69   1.0000      -0.425240       -11.5714
  70   1.0000      -0.410421       -11.1681
  71   1.0000      -0.363595        -9.8939
  72   0.0000       0.012081         0.3287
  73   0.0000       0.022591         0.6147
  74   0.0000       0.023651         0.6436
  75   0.0000       0.029857         0.8124
  76   0.0000       0.038551         1.0490

E(0)                                       ...  -3028.456070430
E(0)                                       ...  -3028.456070430
E(CORR)(strong-pairs)                      ...     -2.868464139
E(CORR)(weak-pairs)                        ...     -0.036002580
E(CORR)(corrected)                         ...     -2.904466719
E(TOT)                                     ...  -3031.360537149
E(CCSD(T))                                 ...  -3031.479016215
FINAL SINGLE POINT ENERGY     -3031.479016215096

DIPOLE MOMENT
-------------
                                X             Y             Z
Electronic contribution:    -44.02580      -5.69397       0.85040
Nuclear contribution   :     47.67820       7.02048      -1.41098
                        -----------------------------------------
Total Dipole Moment    :      3.65240       1.32651      -0.56058
                        -----------------------------------------
Magnitude (a.u.)       :      3.92605
Magnitude (Debye)      :      9.97924

Rotational constants in cm-1:     0.019074     0.010501     0.009891
Rotational constants in MHz :   571.825353   314.811946   296.537842

                             ****ORCA TERMINATED NORMALLY****
TOTAL RUN TIME: 0 days 16 hours 54 minutes 22 seconds 991 msec
