                         Program Version 4.1.2  - RELEASE  -
|  1> ! aug-cc-pVTZ aug-cc-pVTZ/C DLPNO-CCSD(T1) TightSCF NormalPNO UNO MiniPrint AutoAux
|  2> %pal nproc 10 end
|  3> %maxcore 20000
|  4> %mdci
|  5>      density none
|  6> end
|  7>
|  8> * xyz 0 6
|  9>  O      0.28141200      0.25758600     -0.52267300
| 10>  C      1.08113400      1.20682900     -0.24870100
| 11>  C      2.74460800      0.14693800      0.93429600
| 12>  C      3.10102300     -0.67327600     -0.09458400
| 13>  C      4.18002100     -0.30880300     -1.06854800
| 14> Fe     -1.55805900     -0.18233700     -0.10088300
| 15> Cl     -1.87696600     -2.06356400     -1.15850200
| 16>  C      2.39312500     -1.97117000     -0.32541900
| 17> Cl     -2.59567800      1.58108200     -0.89090800
| 18> Cl     -1.78762600     -0.36385700      2.07544900
| 19>  H      3.33572600      1.05096900      1.07402400
| 20>  H      2.91220400     -2.59948700     -1.05372300
| 21>  H      2.25425500     -2.53856900      0.60015500
| 22>  H      1.38507000     -1.75893400     -0.71661000
| 23>  H      5.00992000     -1.02083900     -0.96190200
| 24>  H      3.83472700     -0.39746300     -2.10652700
| 25>  H      4.57534500      0.69710200     -0.90639600
| 26>  C      1.95435800     -0.34263300      2.12481000
| 27>  H      2.49379800     -1.15645900      2.62527800
| 28>  H      1.80674600      0.44930800      2.86145400
| 29>  H      0.97028400     -0.72936200      1.84826300
| 30>  C      0.73835700      2.14475900      0.88189700
| 31>  H      1.59300000      2.73825700      1.21104300
| 32>  H     -0.01846100      2.82803600      0.46944000
| 33>  H      0.27989400      1.62459000      1.72192000
| 34>  C      1.84787000      1.79605600     -1.40340500
| 35>  H      1.17337400      2.52746600     -1.87016100
| 36>  H      2.75013600      2.32188600     -1.08628200
| 37>  H      2.08382600      1.03915600     -2.15040100
| 38> *
| 39>
| 40>
| 41>                          ****END OF INPUT****

CARTESIAN COORDINATES (ANGSTROEM)
---------------------------------
  O      0.281412    0.257586   -0.522673
  C      1.081134    1.206829   -0.248701
  C      2.744608    0.146938    0.934296
  C      3.101023   -0.673276   -0.094584
  C      4.180021   -0.308803   -1.068548
  Fe    -1.558059   -0.182337   -0.100883
  Cl    -1.876966   -2.063564   -1.158502
  C      2.393125   -1.971170   -0.325419
  Cl    -2.595678    1.581082   -0.890908
  Cl    -1.787626   -0.363857    2.075449
  H      3.335726    1.050969    1.074024
  H      2.912204   -2.599487   -1.053723
  H      2.254255   -2.538569    0.600155
  H      1.385070   -1.758934   -0.716610
  H      5.009920   -1.020839   -0.961902
  H      3.834727   -0.397463   -2.106527
  H      4.575345    0.697102   -0.906396
  C      1.954358   -0.342633    2.124810
  H      2.493798   -1.156459    2.625278
  H      1.806746    0.449308    2.861454
  H      0.970284   -0.729362    1.848263
  C      0.738357    2.144759    0.881897
  H      1.593000    2.738257    1.211043
  H     -0.018461    2.828036    0.469440
  H      0.279894    1.624590    1.721920
  C      1.847870    1.796056   -1.403405
  H      1.173374    2.527466   -1.870161
  H      2.750136    2.321886   -1.086282
  H      2.083826    1.039156   -2.150401

ORBITAL ENERGIES
----------------
                 SPIN UP ORBITALS
  NO   OCC          E(Eh)            E(eV)
   0   1.0000    -261.567256     -7117.6069
   1   1.0000    -104.786682     -2851.3906
   2   1.0000    -104.784407     -2851.3287
   3   1.0000    -104.782534     -2851.2777
   4   1.0000     -32.235013      -877.1593
   5   1.0000     -27.711417      -754.0660
   6   1.0000     -27.710399      -754.0383
   7   1.0000     -27.710242      -754.0340
   8   1.0000     -20.602667      -560.6271
   9   1.0000     -11.415297      -310.6260
  10   1.0000     -11.296102      -307.3826
  11   1.0000     -11.271954      -306.7255
  12   1.0000     -11.268051      -306.6192
  13   1.0000     -11.261303      -306.4356
  14   1.0000     -11.256497      -306.3048
  15   1.0000     -11.243993      -305.9646
  16   1.0000     -11.239835      -305.8515
  17   1.0000     -10.513353      -286.0829
  18   1.0000     -10.511054      -286.0203
  19   1.0000     -10.509140      -285.9682
  20   1.0000      -7.980190      -217.1520
  21   1.0000      -7.979412      -217.1308
  22   1.0000      -7.979405      -217.1307
  23   1.0000      -7.977929      -217.0905
  24   1.0000      -7.977154      -217.0694
  25   1.0000      -7.977075      -217.0672
  26   1.0000      -7.975945      -217.0365
  27   1.0000      -7.975280      -217.0184
  28   1.0000      -7.975196      -217.0161
  29   1.0000      -4.590084      -124.9025
  30   1.0000      -3.203259       -87.1651
  31   1.0000      -3.201555       -87.1188
  32   1.0000      -3.201386       -87.1142
  33   1.0000      -1.445650       -39.3381
  34   1.0000      -1.146020       -31.1848
  35   1.0000      -1.093234       -29.7484
  36   1.0000      -1.059316       -28.8254
  37   1.0000      -1.053959       -28.6797
  38   1.0000      -1.051176       -28.6040
  39   1.0000      -1.029492       -28.0139
  40   1.0000      -1.002438       -27.2777
  41   1.0000      -0.976182       -26.5633
  42   1.0000      -0.936059       -25.4715
  43   1.0000      -0.919190       -25.0124
  44   1.0000      -0.919181       -25.0122
  45   1.0000      -0.908752       -24.7284
  46   1.0000      -0.908200       -24.7134
  47   1.0000      -0.906108       -24.6565
  48   1.0000      -0.805804       -21.9270
  49   1.0000      -0.745482       -20.2856
  50   1.0000      -0.701174       -19.0799
  51   1.0000      -0.691189       -18.8082
  52   1.0000      -0.683667       -18.6035
  53   1.0000      -0.668607       -18.1937
  54   1.0000      -0.635806       -17.3012
  55   1.0000      -0.622353       -16.9351
  56   1.0000      -0.605525       -16.4772
  57   1.0000      -0.597116       -16.2484
  58   1.0000      -0.583348       -15.8737
  59   1.0000      -0.576138       -15.6775
  60   1.0000      -0.569479       -15.4963
  61   1.0000      -0.560536       -15.2530
  62   1.0000      -0.553972       -15.0743
  63   1.0000      -0.544951       -14.8289
  64   1.0000      -0.533484       -14.5169
  65   1.0000      -0.526670       -14.3314
  66   1.0000      -0.509440       -13.8626
  67   1.0000      -0.494224       -13.4485
  68   1.0000      -0.472186       -12.8488
  69   1.0000      -0.467112       -12.7108
  70   1.0000      -0.440417       -11.9844
  71   1.0000      -0.434601       -11.8261
  72   1.0000      -0.432268       -11.7626
  73   1.0000      -0.424097       -11.5403
  74   1.0000      -0.422667       -11.5013
  75   1.0000      -0.421522       -11.4702
  76   1.0000      -0.369533       -10.0555
  77   0.0000       0.011117         0.3025
  78   0.0000       0.021932         0.5968
  79   0.0000       0.022710         0.6180
  80   0.0000       0.029202         0.7946
  81   0.0000       0.038375         1.0442

                 SPIN DOWN ORBITALS
  NO   OCC          E(Eh)            E(eV)
   0   1.0000    -261.563683     -7117.5097
   1   1.0000    -104.785189     -2851.3500
   2   1.0000    -104.782894     -2851.2875
   3   1.0000    -104.781006     -2851.2361
   4   1.0000     -32.072990      -872.7504
   5   1.0000     -27.550938      -749.6991
   6   1.0000     -27.550850      -749.6967
   7   1.0000     -27.550665      -749.6917
   8   1.0000     -20.598963      -560.5263
   9   1.0000     -11.415121      -310.6212
  10   1.0000     -11.295642      -307.3701
  11   1.0000     -11.271853      -306.7227
  12   1.0000     -11.268052      -306.6193
  13   1.0000     -11.261362      -306.4372
  14   1.0000     -11.256808      -306.3133
  15   1.0000     -11.244049      -305.9661
  16   1.0000     -11.239813      -305.8509
  17   1.0000     -10.511758      -286.0395
  18   1.0000     -10.509437      -285.9763
  19   1.0000     -10.507514      -285.9240
  20   1.0000      -7.977666      -217.0833
  21   1.0000      -7.976951      -217.0639
  22   1.0000      -7.976900      -217.0625
  23   1.0000      -7.975327      -217.0197
  24   1.0000      -7.974667      -217.0017
  25   1.0000      -7.974568      -216.9990
  26   1.0000      -7.973492      -216.9698
  27   1.0000      -7.972664      -216.9472
  28   1.0000      -7.972571      -216.9447
  29   1.0000      -4.147882      -112.8696
  30   1.0000      -2.669489       -72.6405
  31   1.0000      -2.669391       -72.6378
  32   1.0000      -2.669019       -72.6277
  33   1.0000      -1.436272       -39.0829
  34   1.0000      -1.145248       -31.1638
  35   1.0000      -1.090627       -29.6775
  36   1.0000      -1.043934       -28.4069
  37   1.0000      -1.032288       -28.0900
  38   1.0000      -1.029356       -28.0102
  39   1.0000      -1.028415       -27.9846
  40   1.0000      -1.001845       -27.2616
  41   1.0000      -0.976117       -26.5615
  42   1.0000      -0.906533       -24.6680
  43   1.0000      -0.820477       -22.3263
  44   1.0000      -0.745471       -20.2853
  45   1.0000      -0.704213       -19.1626
  46   1.0000      -0.689668       -18.7668
  47   1.0000      -0.683366       -18.5953
  48   1.0000      -0.668522       -18.1914
  49   1.0000      -0.635803       -17.3011
  50   1.0000      -0.621604       -16.9147
  51   1.0000      -0.605201       -16.4683
  52   1.0000      -0.596843       -16.2409
  53   1.0000      -0.583173       -15.8689
  54   1.0000      -0.575330       -15.6555
  55   1.0000      -0.569192       -15.4885
  56   1.0000      -0.560463       -15.2510
  57   1.0000      -0.553869       -15.0715
  58   1.0000      -0.543006       -14.7759
  59   1.0000      -0.533274       -14.5111
  60   1.0000      -0.516001       -14.0411
  61   1.0000      -0.509425       -13.8622
  62   1.0000      -0.494136       -13.4461
  63   1.0000      -0.477814       -13.0020
  64   1.0000      -0.476001       -12.9526
  65   1.0000      -0.447896       -12.1879
  66   1.0000      -0.444270       -12.0892
  67   1.0000      -0.442029       -12.0282
  68   1.0000      -0.426620       -11.6089
  69   1.0000      -0.422487       -11.4965
  70   1.0000      -0.407019       -11.0755
  71   1.0000      -0.368608       -10.0303
  72   0.0000       0.011109         0.3023
  73   0.0000       0.021919         0.5964
  74   0.0000       0.022681         0.6172
  75   0.0000       0.029062         0.7908
  76   0.0000       0.037818         1.0291

E(0)                                       ...  -3028.447232928
E(0)                                       ...  -3028.447232928
E(CORR)(strong-pairs)                      ...     -2.871598780
E(CORR)(weak-pairs)                        ...     -0.034910921
E(CORR)(corrected)                         ...     -2.906509701
E(TOT)                                     ...  -3031.353742629
E(CCSD(T))                                 ...  -3031.473097168
FINAL SINGLE POINT ENERGY     -3031.473097168334

DIPOLE MOMENT
-------------
                                X             Y             Z
Electronic contribution:    -45.38345      -5.52588      -1.91373
Nuclear contribution   :     49.48854       6.73330       1.83076
                        -----------------------------------------
Total Dipole Moment    :      4.10509       1.20742      -0.08297
                        -----------------------------------------
Magnitude (a.u.)       :      4.27978
Magnitude (Debye)      :     10.87834

Rotational constants in cm-1:     0.019719     0.009913     0.009482
Rotational constants in MHz :   591.158407   297.170706   284.273960

                             ****ORCA TERMINATED NORMALLY****
TOTAL RUN TIME: 0 days 18 hours 10 minutes 10 seconds 610 msec
