                         Program Version 4.1.2  - RELEASE  -
|  1> ! aug-cc-pVTZ aug-cc-pVTZ/C DLPNO-CCSD(T1) TightSCF NormalPNO UNO MiniPrint AutoAux
|  2> %pal nproc 10 end
|  3> %maxcore 20000
|  4> %mdci
|  5>      density none
|  6> end
|  7>
|  8> * xyz 0 6
|  9>  O     -0.30436300     -0.18513000     -0.76048400
| 10>  C     -1.18499500     -1.11019000     -0.62087300
| 11>  C     -2.90211700     -0.19801600      0.40841400
| 12>  C     -2.47935900      0.98537200     -0.12662700
| 13>  C     -2.88438200      1.43168900     -1.49599500
| 14> Fe      1.42972600      0.11442900      0.00612400
| 15> Cl      2.04159500      2.05313800     -0.80218600
| 16>  C     -1.59150400      1.94031200      0.59942400
| 17> Cl      2.59581200     -1.61591700     -0.67077300
| 18> Cl      1.18439100      0.13143200      2.20444800
| 19>  H     -3.65374100     -0.74815100     -0.15429800
| 20>  H     -2.19410900      2.80899500      0.90184000
| 21>  H     -1.12839700      1.52288600      1.49189600
| 22>  H     -0.80537400      2.31818300     -0.06335800
| 23>  H     -3.29720000      2.44649800     -1.43572100
| 24>  H     -1.99992900      1.49676500     -2.14314800
| 25>  H     -3.63273000      0.78306100     -1.95608000
| 26>  C     -2.83708400     -0.52246700      1.88308400
| 27>  H     -3.63195500      0.02099900      2.40980400
| 28>  H     -3.00170500     -1.58696400      2.06511500
| 29>  H     -1.88670600     -0.24233600      2.34298200
| 30>  C     -0.93131500     -2.19942200      0.39127600
| 31>  H     -1.79529100     -2.85128700      0.52868600
| 32>  H     -0.10979900     -2.79568700     -0.03124500
| 33>  H     -0.58744900     -1.80791200      1.34773400
| 34>  C     -1.86005600     -1.56508500     -1.89539300
| 35>  H     -1.12318800     -2.20426800     -2.40046800
| 36>  H     -2.75623400     -2.15997800     -1.71007600
| 37>  H     -2.07986600     -0.73517900     -2.56418600
| 38> *
| 39>
| 40>
| 41>                          ****END OF INPUT****

CARTESIAN COORDINATES (ANGSTROEM)
---------------------------------
  O     -0.304363   -0.185130   -0.760484
  C     -1.184995   -1.110190   -0.620873
  C     -2.902117   -0.198016    0.408414
  C     -2.479359    0.985372   -0.126627
  C     -2.884382    1.431689   -1.495995
  Fe     1.429726    0.114429    0.006124
  Cl     2.041595    2.053138   -0.802186
  C     -1.591504    1.940312    0.599424
  Cl     2.595812   -1.615917   -0.670773
  Cl     1.184391    0.131432    2.204448
  H     -3.653741   -0.748151   -0.154298
  H     -2.194109    2.808995    0.901840
  H     -1.128397    1.522886    1.491896
  H     -0.805374    2.318183   -0.063358
  H     -3.297200    2.446498   -1.435721
  H     -1.999929    1.496765   -2.143148
  H     -3.632730    0.783061   -1.956080
  C     -2.837084   -0.522467    1.883084
  H     -3.631955    0.020999    2.409804
  H     -3.001705   -1.586964    2.065115
  H     -1.886706   -0.242336    2.342982
  C     -0.931315   -2.199422    0.391276
  H     -1.795291   -2.851287    0.528686
  H     -0.109799   -2.795687   -0.031245
  H     -0.587449   -1.807912    1.347734
  C     -1.860056   -1.565085   -1.895393
  H     -1.123188   -2.204268   -2.400468
  H     -2.756234   -2.159978   -1.710076
  H     -2.079866   -0.735179   -2.564186

ORBITAL ENERGIES
----------------
                 SPIN UP ORBITALS
  NO   OCC          E(Eh)            E(eV)
   0   1.0000    -261.563722     -7117.5107
   1   1.0000    -104.785828     -2851.3673
   2   1.0000    -104.781862     -2851.2594
   3   1.0000    -104.781303     -2851.2442
   4   1.0000     -32.231547      -877.0650
   5   1.0000     -27.707747      -753.9661
   6   1.0000     -27.707054      -753.9473
   7   1.0000     -27.706872      -753.9423
   8   1.0000     -20.584215      -560.1250
   9   1.0000     -11.410665      -310.5000
  10   1.0000     -11.311906      -307.8126
  11   1.0000     -11.267775      -306.6117
  12   1.0000     -11.262249      -306.4614
  13   1.0000     -11.261161      -306.4318
  14   1.0000     -11.260220      -306.4062
  15   1.0000     -11.247338      -306.0556
  16   1.0000     -11.244554      -305.9799
  17   1.0000     -10.512487      -286.0593
  18   1.0000     -10.508511      -285.9511
  19   1.0000     -10.507911      -285.9348
  20   1.0000      -7.979354      -217.1293
  21   1.0000      -7.978529      -217.1068
  22   1.0000      -7.978495      -217.1059
  23   1.0000      -7.975376      -217.0210
  24   1.0000      -7.974714      -217.0030
  25   1.0000      -7.974607      -217.0001
  26   1.0000      -7.974540      -216.9983
  27   1.0000      -7.974026      -216.9843
  28   1.0000      -7.973963      -216.9826
  29   1.0000      -4.586674      -124.8097
  30   1.0000      -3.199526       -87.0635
  31   1.0000      -3.198400       -87.0329
  32   1.0000      -3.198109       -87.0250
  33   1.0000      -1.431137       -38.9432
  34   1.0000      -1.153708       -31.3940
  35   1.0000      -1.090789       -29.6819
  36   1.0000      -1.057575       -28.7781
  37   1.0000      -1.051871       -28.6229
  38   1.0000      -1.049330       -28.5537
  39   1.0000      -1.033816       -28.1316
  40   1.0000      -0.998958       -27.1830
  41   1.0000      -0.977615       -26.6022
  42   1.0000      -0.931982       -25.3605
  43   1.0000      -0.915881       -24.9224
  44   1.0000      -0.915770       -24.9194
  45   1.0000      -0.914573       -24.8868
  46   1.0000      -0.906093       -24.6560
  47   1.0000      -0.905388       -24.6368
  48   1.0000      -0.798093       -21.7172
  49   1.0000      -0.749554       -20.3964
  50   1.0000      -0.695187       -18.9170
  51   1.0000      -0.689782       -18.7699
  52   1.0000      -0.683462       -18.5980
  53   1.0000      -0.667689       -18.1687
  54   1.0000      -0.638636       -17.3782
  55   1.0000      -0.622428       -16.9371
  56   1.0000      -0.604191       -16.4409
  57   1.0000      -0.595984       -16.2176
  58   1.0000      -0.582705       -15.8562
  59   1.0000      -0.573579       -15.6079
  60   1.0000      -0.567027       -15.4296
  61   1.0000      -0.558627       -15.2010
  62   1.0000      -0.554615       -15.0918
  63   1.0000      -0.548407       -14.9229
  64   1.0000      -0.541305       -14.7296
  65   1.0000      -0.524538       -14.2734
  66   1.0000      -0.512607       -13.9488
  67   1.0000      -0.488636       -13.2965
  68   1.0000      -0.469416       -12.7734
  69   1.0000      -0.465205       -12.6589
  70   1.0000      -0.437377       -11.9016
  71   1.0000      -0.433115       -11.7856
  72   1.0000      -0.431507       -11.7419
  73   1.0000      -0.422653       -11.5010
  74   1.0000      -0.421428       -11.4676
  75   1.0000      -0.420555       -11.4439
  76   1.0000      -0.373824       -10.1723
  77   0.0000       0.011358         0.3091
  78   0.0000       0.021584         0.5873
  79   0.0000       0.022794         0.6202
  80   0.0000       0.029971         0.8155
  81   0.0000       0.037785         1.0282

                 SPIN DOWN ORBITALS
  NO   OCC          E(Eh)            E(eV)
   0   1.0000    -261.560164     -7117.4139
   1   1.0000    -104.784420     -2851.3290
   2   1.0000    -104.780360     -2851.2186
   3   1.0000    -104.779832     -2851.2042
   4   1.0000     -32.069493      -872.6553
   5   1.0000     -27.547448      -749.6042
   6   1.0000     -27.547380      -749.6023
   7   1.0000     -27.547105      -749.5948
   8   1.0000     -20.579936      -560.0085
   9   1.0000     -11.410595      -310.4981
  10   1.0000     -11.311779      -307.8092
  11   1.0000     -11.267662      -306.6087
  12   1.0000     -11.262203      -306.4601
  13   1.0000     -11.261145      -306.4313
  14   1.0000     -11.260236      -306.4066
  15   1.0000     -11.247342      -306.0557
  16   1.0000     -11.244594      -305.9809
  17   1.0000     -10.510977      -286.0182
  18   1.0000     -10.506906      -285.9075
  19   1.0000     -10.506344      -285.8922
  20   1.0000      -7.976860      -217.0614
  21   1.0000      -7.976267      -217.0453
  22   1.0000      -7.976207      -217.0436
  23   1.0000      -7.972808      -216.9511
  24   1.0000      -7.972326      -216.9380
  25   1.0000      -7.972133      -216.9328
  26   1.0000      -7.972045      -216.9304
  27   1.0000      -7.971533      -216.9164
  28   1.0000      -7.971447      -216.9141
  29   1.0000      -4.144388      -112.7745
  30   1.0000      -2.666043       -72.5467
  31   1.0000      -2.666029       -72.5463
  32   1.0000      -2.665299       -72.5265
  33   1.0000      -1.420325       -38.6490
  34   1.0000      -1.153037       -31.3757
  35   1.0000      -1.088113       -29.6090
  36   1.0000      -1.042843       -28.3772
  37   1.0000      -1.033592       -28.1255
  38   1.0000      -1.030424       -28.0393
  39   1.0000      -1.027667       -27.9643
  40   1.0000      -0.998150       -27.1610
  41   1.0000      -0.977485       -26.5987
  42   1.0000      -0.915542       -24.9132
  43   1.0000      -0.811318       -22.0771
  44   1.0000      -0.749708       -20.4006
  45   1.0000      -0.697807       -18.9883
  46   1.0000      -0.689532       -18.7631
  47   1.0000      -0.682486       -18.5714
  48   1.0000      -0.667209       -18.1557
  49   1.0000      -0.638530       -17.3753
  50   1.0000      -0.621946       -16.9240
  51   1.0000      -0.603579       -16.4242
  52   1.0000      -0.595978       -16.2174
  53   1.0000      -0.582511       -15.8509
  54   1.0000      -0.572813       -15.5870
  55   1.0000      -0.566851       -15.4248
  56   1.0000      -0.558552       -15.1990
  57   1.0000      -0.554275       -15.0826
  58   1.0000      -0.546076       -14.8595
  59   1.0000      -0.539479       -14.6800
  60   1.0000      -0.514519       -14.0008
  61   1.0000      -0.512041       -13.9333
  62   1.0000      -0.488109       -13.2821
  63   1.0000      -0.475753       -12.9459
  64   1.0000      -0.474050       -12.8996
  65   1.0000      -0.445798       -12.1308
  66   1.0000      -0.442959       -12.0535
  67   1.0000      -0.440608       -11.9896
  68   1.0000      -0.425458       -11.5773
  69   1.0000      -0.421216       -11.4619
  70   1.0000      -0.406658       -11.0657
  71   1.0000      -0.371949       -10.1212
  72   0.0000       0.011349         0.3088
  73   0.0000       0.021560         0.5867
  74   0.0000       0.022778         0.6198
  75   0.0000       0.029896         0.8135
  76   0.0000       0.037462         1.0194

E(0)                                       ...  -3028.436334107
E(0)                                       ...  -3028.436334107
E(CORR)(strong-pairs)                      ...     -2.873700955
E(CORR)(weak-pairs)                        ...     -0.036173352
E(CORR)(corrected)                         ...     -2.909874307
E(TOT)                                     ...  -3031.346208415
E(CCSD(T))                                 ...  -3031.466078911
FINAL SINGLE POINT ENERGY     -3031.466078910783

DIPOLE MOMENT
-------------
                                X             Y             Z
Electronic contribution:     41.68584       4.09038       1.78834
Nuclear contribution   :    -45.75572      -4.80671      -2.36301
                        -----------------------------------------
Total Dipole Moment    :     -4.06988      -0.71633      -0.57467
                        -----------------------------------------
Magnitude (a.u.)       :      4.17220
Magnitude (Debye)      :     10.60490

Rotational constants in cm-1:     0.019127     0.011243     0.010566
Rotational constants in MHz :   573.398477   337.061983   316.774523

                             ****ORCA TERMINATED NORMALLY****
TOTAL RUN TIME: 0 days 20 hours 0 minutes 49 seconds 78 msec
