                         Program Version 4.1.2  - RELEASE  -
|  1> ! aug-cc-pVTZ aug-cc-pVTZ/C DLPNO-CCSD(T1) TightSCF NormalPNO UNO MiniPrint AutoAux
|  2> %pal nproc 10 end
|  3> %maxcore 20000
|  4> %mdci
|  5>      density none
|  6> end
|  7>
|  8> * xyz 0 6
|  9>  O     -0.31218200     -0.18135800     -0.73780400
| 10>  C     -1.22278400     -1.09967900     -0.59015300
| 11>  C     -2.79758400     -0.27249200      0.42880100
| 12>  C     -2.49599800      0.96707100     -0.09391300
| 13>  C     -2.99518300      1.41057000     -1.42881000
| 14> Fe      1.41691700      0.11914500     -0.01293200
| 15> Cl      1.97851900      2.09087500     -0.79549400
| 16>  C     -1.61511900      1.94319800      0.60245200
| 17> Cl      2.63059300     -1.57181200     -0.70953200
| 18> Cl      1.19057700      0.12068900      2.19528800
| 19>  H     -3.58296600     -0.82479900     -0.08417400
| 20>  H     -2.23754900      2.78771400      0.93369600
| 21>  H     -1.10188000      1.53530800      1.47113500
| 22>  H     -0.87148400      2.35213400     -0.09107700
| 23>  H     -3.43879800      2.40948700     -1.33318200
| 24>  H     -2.14619700      1.51740600     -2.11742000
| 25>  H     -3.73849700      0.73708000     -1.85876600
| 26>  C     -2.67686200     -0.57054600      1.91071800
| 27>  H     -3.44270300     -0.00710200      2.45750400
| 28>  H     -2.84782600     -1.62981600      2.11254100
| 29>  H     -1.70358300     -0.29930700      2.32485200
| 30>  C     -0.90094300     -2.24738500      0.34620900
| 31>  H     -1.74954400     -2.91840600      0.49288600
| 32>  H     -0.09677900     -2.80616000     -0.15165700
| 33>  H     -0.51325600     -1.90620300      1.30523200
| 34>  C     -1.87460200     -1.54114900     -1.88918100
| 35>  H     -1.11781700     -2.14184600     -2.40924600
| 36>  H     -2.75640100     -2.16533200     -1.72806100
| 37>  H     -2.11736400     -0.70036700     -2.53679100
| 38> *
| 39>
| 40>
| 41>                          ****END OF INPUT****

CARTESIAN COORDINATES (ANGSTROEM)
---------------------------------
  O     -0.312182   -0.181358   -0.737804
  C     -1.222784   -1.099679   -0.590153
  C     -2.797584   -0.272492    0.428801
  C     -2.495998    0.967071   -0.093913
  C     -2.995183    1.410570   -1.428810
  Fe     1.416917    0.119145   -0.012932
  Cl     1.978519    2.090875   -0.795494
  C     -1.615119    1.943198    0.602452
  Cl     2.630593   -1.571812   -0.709532
  Cl     1.190577    0.120689    2.195288
  H     -3.582966   -0.824799   -0.084174
  H     -2.237549    2.787714    0.933696
  H     -1.101880    1.535308    1.471135
  H     -0.871484    2.352134   -0.091077
  H     -3.438798    2.409487   -1.333182
  H     -2.146197    1.517406   -2.117420
  H     -3.738497    0.737080   -1.858766
  C     -2.676862   -0.570546    1.910718
  H     -3.442703   -0.007102    2.457504
  H     -2.847826   -1.629816    2.112541
  H     -1.703583   -0.299307    2.324852
  C     -0.900943   -2.247385    0.346209
  H     -1.749544   -2.918406    0.492886
  H     -0.096779   -2.806160   -0.151657
  H     -0.513256   -1.906203    1.305232
  C     -1.874602   -1.541149   -1.889181
  H     -1.117817   -2.141846   -2.409246
  H     -2.756401   -2.165332   -1.728061
  H     -2.117364   -0.700367   -2.536791

ORBITAL ENERGIES
----------------
                 SPIN UP ORBITALS
  NO   OCC          E(Eh)            E(eV)
   0   1.0000    -261.556926     -7117.3258
   1   1.0000    -104.781707     -2851.2552
   2   1.0000    -104.777258     -2851.1341
   3   1.0000    -104.776821     -2851.1223
   4   1.0000     -32.224799      -876.8814
   5   1.0000     -27.700865      -753.7788
   6   1.0000     -27.700397      -753.7661
   7   1.0000     -27.700184      -753.7603
   8   1.0000     -20.567798      -559.6782
   9   1.0000     -11.398062      -310.1570
  10   1.0000     -11.338799      -308.5444
  11   1.0000     -11.271855      -306.7228
  12   1.0000     -11.271692      -306.7183
  13   1.0000     -11.260874      -306.4240
  14   1.0000     -11.254126      -306.2403
  15   1.0000     -11.253921      -306.2348
  16   1.0000     -11.249972      -306.1273
  17   1.0000     -10.508342      -285.9465
  18   1.0000     -10.503856      -285.8245
  19   1.0000     -10.503457      -285.8136
  20   1.0000      -7.975225      -217.0169
  21   1.0000      -7.974369      -216.9936
  22   1.0000      -7.974337      -216.9927
  23   1.0000      -7.970667      -216.8929
  24   1.0000      -7.970307      -216.8831
  25   1.0000      -7.969965      -216.8738
  26   1.0000      -7.969892      -216.8718
  27   1.0000      -7.969557      -216.8627
  28   1.0000      -7.969486      -216.8607
  29   1.0000      -4.580038      -124.6292
  30   1.0000      -3.192734       -86.8787
  31   1.0000      -3.191929       -86.8568
  32   1.0000      -3.191563       -86.8468
  33   1.0000      -1.412233       -38.4288
  34   1.0000      -1.167493       -31.7691
  35   1.0000      -1.085387       -29.5349
  36   1.0000      -1.052704       -28.6455
  37   1.0000      -1.046962       -28.4893
  38   1.0000      -1.044276       -28.4162
  39   1.0000      -1.039509       -28.2865
  40   1.0000      -0.994008       -27.0483
  41   1.0000      -0.985443       -26.8153
  42   1.0000      -0.927999       -25.2521
  43   1.0000      -0.919241       -25.0138
  44   1.0000      -0.909316       -24.7437
  45   1.0000      -0.909234       -24.7415
  46   1.0000      -0.900177       -24.4951
  47   1.0000      -0.899429       -24.4747
  48   1.0000      -0.790738       -21.5171
  49   1.0000      -0.759280       -20.6611
  50   1.0000      -0.693257       -18.8645
  51   1.0000      -0.689476       -18.7616
  52   1.0000      -0.677572       -18.4377
  53   1.0000      -0.662297       -18.0220
  54   1.0000      -0.646741       -17.5987
  55   1.0000      -0.625467       -17.0198
  56   1.0000      -0.601871       -16.3777
  57   1.0000      -0.594000       -16.1635
  58   1.0000      -0.584144       -15.8954
  59   1.0000      -0.574724       -15.6390
  60   1.0000      -0.570676       -15.5289
  61   1.0000      -0.562445       -15.3049
  62   1.0000      -0.553852       -15.0711
  63   1.0000      -0.550027       -14.9670
  64   1.0000      -0.541528       -14.7357
  65   1.0000      -0.521378       -14.1874
  66   1.0000      -0.518671       -14.1138
  67   1.0000      -0.480730       -13.0813
  68   1.0000      -0.465172       -12.6580
  69   1.0000      -0.458784       -12.4841
  70   1.0000      -0.432105       -11.7582
  71   1.0000      -0.429219       -11.6796
  72   1.0000      -0.427543       -11.6340
  73   1.0000      -0.418523       -11.3886
  74   1.0000      -0.417232       -11.3535
  75   1.0000      -0.416317       -11.3286
  76   1.0000      -0.383384       -10.4324
  77   0.0000       0.009699         0.2639
  78   0.0000       0.020185         0.5493
  79   0.0000       0.021904         0.5960
  80   0.0000       0.027868         0.7583
  81   0.0000       0.033575         0.9136

                 SPIN DOWN ORBITALS
  NO   OCC          E(Eh)            E(eV)
   0   1.0000    -261.553374     -7117.2291
   1   1.0000    -104.780337     -2851.2179
   2   1.0000    -104.775835     -2851.0954
   3   1.0000    -104.775344     -2851.0821
   4   1.0000     -32.062723      -872.4710
   5   1.0000     -27.540730      -749.4214
   6   1.0000     -27.540624      -749.4185
   7   1.0000     -27.540253      -749.4084
   8   1.0000     -20.563049      -559.5490
   9   1.0000     -11.398034      -310.1563
  10   1.0000     -11.338645      -308.5402
  11   1.0000     -11.271875      -306.7233
  12   1.0000     -11.271605      -306.7160
  13   1.0000     -11.260760      -306.4209
  14   1.0000     -11.254170      -306.2415
  15   1.0000     -11.253898      -306.2341
  16   1.0000     -11.249981      -306.1276
  17   1.0000     -10.506870      -285.9065
  18   1.0000     -10.502337      -285.7831
  19   1.0000     -10.501876      -285.7706
  20   1.0000      -7.972737      -216.9492
  21   1.0000      -7.972209      -216.9348
  22   1.0000      -7.972144      -216.9331
  23   1.0000      -7.968315      -216.8289
  24   1.0000      -7.967799      -216.8148
  25   1.0000      -7.967575      -216.8087
  26   1.0000      -7.967486      -216.8063
  27   1.0000      -7.967110      -216.7961
  28   1.0000      -7.967026      -216.7938
  29   1.0000      -4.137709      -112.5928
  30   1.0000      -2.659450       -72.3673
  31   1.0000      -2.659409       -72.3662
  32   1.0000      -2.658557       -72.3430
  33   1.0000      -1.400147       -38.0999
  34   1.0000      -1.166636       -31.7458
  35   1.0000      -1.082634       -29.4600
  36   1.0000      -1.039928       -28.2979
  37   1.0000      -1.037469       -28.2310
  38   1.0000      -1.026133       -27.9225
  39   1.0000      -1.023162       -27.8416
  40   1.0000      -0.993643       -27.0384
  41   1.0000      -0.984877       -26.7999
  42   1.0000      -0.923160       -25.1205
  43   1.0000      -0.803668       -21.8689
  44   1.0000      -0.759869       -20.6771
  45   1.0000      -0.694512       -18.8986
  46   1.0000      -0.688853       -18.7447
  47   1.0000      -0.678747       -18.4696
  48   1.0000      -0.661548       -18.0016
  49   1.0000      -0.646493       -17.5920
  50   1.0000      -0.625017       -17.0076
  51   1.0000      -0.601005       -16.3542
  52   1.0000      -0.594143       -16.1674
  53   1.0000      -0.583949       -15.8901
  54   1.0000      -0.574179       -15.6242
  55   1.0000      -0.570481       -15.5236
  56   1.0000      -0.562188       -15.2979
  57   1.0000      -0.553583       -15.0638
  58   1.0000      -0.549276       -14.9466
  59   1.0000      -0.537102       -14.6153
  60   1.0000      -0.521314       -14.1857
  61   1.0000      -0.508864       -13.8469
  62   1.0000      -0.479387       -13.0448
  63   1.0000      -0.470546       -12.8042
  64   1.0000      -0.468089       -12.7373
  65   1.0000      -0.441633       -12.0174
  66   1.0000      -0.438634       -11.9359
  67   1.0000      -0.436473       -11.8770
  68   1.0000      -0.422959       -11.5093
  69   1.0000      -0.416667       -11.3381
  70   1.0000      -0.402978       -10.9656
  71   1.0000      -0.380164       -10.3448
  72   0.0000       0.009696         0.2638
  73   0.0000       0.020145         0.5482
  74   0.0000       0.021893         0.5957
  75   0.0000       0.027571         0.7503
  76   0.0000       0.033223         0.9040

E(0)                                       ...  -3028.429604538
E(0)                                       ...  -3028.429604538
E(CORR)(strong-pairs)                      ...     -2.874076518
E(CORR)(weak-pairs)                        ...     -0.036465100
E(CORR)(corrected)                         ...     -2.910541618
E(TOT)                                     ...  -3031.340146156
E(CCSD(T))                                 ...  -3031.460230193
FINAL SINGLE POINT ENERGY     -3031.460230192512

DIPOLE MOMENT
-------------
                                X             Y             Z
Electronic contribution:     41.00133       4.80700       1.58432
Nuclear contribution   :    -45.46517      -5.23600      -2.08336
                        -----------------------------------------
Total Dipole Moment    :     -4.46385      -0.42900      -0.49904
                        -----------------------------------------
Magnitude (a.u.)       :      4.51209
Magnitude (Debye)      :     11.46883

Rotational constants in cm-1:     0.019138     0.011356     0.010627
Rotational constants in MHz :   573.737951   340.444095   318.601457

                             ****ORCA TERMINATED NORMALLY****
TOTAL RUN TIME: 0 days 21 hours 26 minutes 59 seconds 625 msec
