                         Program Version 4.1.2  - RELEASE  -
|  1> ! aug-cc-pVTZ aug-cc-pVTZ/C DLPNO-CCSD(T1) TightSCF NormalPNO UNO MiniPrint AutoAux
|  2> %pal nproc 10 end
|  3> %maxcore 20000
|  4> %mdci
|  5>      density none
|  6> end
|  7>
|  8> * xyz 0 6
|  9>  O     -0.30356400     -0.29283400     -0.64127000
| 10>  C     -1.36668000     -1.15439400     -0.48857700
| 11>  C     -2.80022000     -0.14525600     -0.08041300
| 12>  C     -2.13161100      1.12307200     -0.22179300
| 13>  C     -1.99535800      1.78130900     -1.53451700
| 14> Fe      1.38309000      0.03732100      0.02325200
| 15> Cl      1.72386500      2.10265700     -0.74220200
| 16>  C     -1.58659200      1.83350500      0.95013500
| 17> Cl      2.75184500     -1.52610700     -0.68708200
| 18> Cl      1.20903200      0.05192000      2.25259500
| 19>  H     -3.47986700     -0.33033900     -0.91354000
| 20>  H     -2.44429700      2.26126300      1.49534300
| 21>  H     -1.08933800      1.14966700      1.64643800
| 22>  H     -0.89657700      2.63080500      0.67129700
| 23>  H     -2.52922400      2.74336900     -1.47877200
| 24>  H     -0.93710300      2.02522200     -1.69928700
| 25>  H     -2.39436400      1.19444900     -2.36180500
| 26>  C     -3.44117900     -0.47390600      1.26131300
| 27>  H     -4.27689000      0.20661700      1.46305200
| 28>  H     -3.84260400     -1.48985600      1.24698600
| 29>  H     -2.73848000     -0.40306900      2.09396200
| 30>  C     -1.15052500     -2.16289100      0.62572100
| 31>  H     -1.99893800     -2.84099800      0.74796400
| 32>  H     -0.27349500     -2.75645800      0.33801300
| 33>  H     -0.91501200     -1.68030200      1.57528200
| 34>  C     -1.70510800     -1.81393100     -1.81843900
| 35>  H     -0.84162700     -2.42092400     -2.11338600
| 36>  H     -2.58591900     -2.45954400     -1.74283100
| 37>  H     -1.86508800     -1.06662200     -2.59997200
| 38> *
| 39>
| 40>
| 41>                          ****END OF INPUT****

CARTESIAN COORDINATES (ANGSTROEM)
---------------------------------
  O     -0.303564   -0.292834   -0.641270
  C     -1.366680   -1.154394   -0.488577
  C     -2.800220   -0.145256   -0.080413
  C     -2.131611    1.123072   -0.221793
  C     -1.995358    1.781309   -1.534517
  Fe     1.383090    0.037321    0.023252
  Cl     1.723865    2.102657   -0.742202
  C     -1.586592    1.833505    0.950135
  Cl     2.751845   -1.526107   -0.687082
  Cl     1.209032    0.051920    2.252595
  H     -3.479867   -0.330339   -0.913540
  H     -2.444297    2.261263    1.495343
  H     -1.089338    1.149667    1.646438
  H     -0.896577    2.630805    0.671297
  H     -2.529224    2.743369   -1.478772
  H     -0.937103    2.025222   -1.699287
  H     -2.394364    1.194449   -2.361805
  C     -3.441179   -0.473906    1.261313
  H     -4.276890    0.206617    1.463052
  H     -3.842604   -1.489856    1.246986
  H     -2.738480   -0.403069    2.093962
  C     -1.150525   -2.162891    0.625721
  H     -1.998938   -2.840998    0.747964
  H     -0.273495   -2.756458    0.338013
  H     -0.915012   -1.680302    1.575282
  C     -1.705108   -1.813931   -1.818439
  H     -0.841627   -2.420924   -2.113386
  H     -2.585919   -2.459544   -1.742831
  H     -1.865088   -1.066622   -2.599972

ORBITAL ENERGIES
----------------
                 SPIN UP ORBITALS
  NO   OCC          E(Eh)            E(eV)
   0   1.0000    -261.545212     -7117.0071
   1   1.0000    -104.774051     -2851.0469
   2   1.0000    -104.773782     -2851.0395
   3   1.0000    -104.768958     -2850.9083
   4   1.0000     -32.213073      -876.5623
   5   1.0000     -27.688998      -753.4560
   6   1.0000     -27.688851      -753.4519
   7   1.0000     -27.688503      -753.4425
   8   1.0000     -20.541115      -558.9522
   9   1.0000     -11.399576      -310.1982
  10   1.0000     -11.358180      -309.0718
  11   1.0000     -11.288809      -307.1841
  12   1.0000     -11.282559      -307.0140
  13   1.0000     -11.276911      -306.8603
  14   1.0000     -11.264308      -306.5174
  15   1.0000     -11.243610      -305.9542
  16   1.0000     -11.237395      -305.7851
  17   1.0000     -10.500633      -285.7368
  18   1.0000     -10.500261      -285.7266
  19   1.0000     -10.495483      -285.5966
  20   1.0000      -7.967533      -216.8076
  21   1.0000      -7.967112      -216.7961
  22   1.0000      -7.966643      -216.7834
  23   1.0000      -7.966608      -216.7824
  24   1.0000      -7.966333      -216.7749
  25   1.0000      -7.966232      -216.7722
  26   1.0000      -7.962281      -216.6647
  27   1.0000      -7.961609      -216.6464
  28   1.0000      -7.961511      -216.6437
  29   1.0000      -4.568596      -124.3178
  30   1.0000      -3.181139       -86.5632
  31   1.0000      -3.180786       -86.5536
  32   1.0000      -3.180264       -86.5394
  33   1.0000      -1.366931       -37.1961
  34   1.0000      -1.188969       -32.3535
  35   1.0000      -1.087730       -29.5986
  36   1.0000      -1.044622       -28.4256
  37   1.0000      -1.040976       -28.3264
  38   1.0000      -1.039333       -28.2817
  39   1.0000      -1.035980       -28.1904
  40   1.0000      -1.015731       -27.6394
  41   1.0000      -0.971269       -26.4296
  42   1.0000      -0.935422       -25.4541
  43   1.0000      -0.908529       -24.7223
  44   1.0000      -0.898355       -24.4455
  45   1.0000      -0.898168       -24.4404
  46   1.0000      -0.890347       -24.2276
  47   1.0000      -0.889780       -24.2121
  48   1.0000      -0.791260       -21.5313
  49   1.0000      -0.763306       -20.7706
  50   1.0000      -0.705123       -19.1874
  51   1.0000      -0.691555       -18.8182
  52   1.0000      -0.675186       -18.3727
  53   1.0000      -0.642139       -17.4735
  54   1.0000      -0.634905       -17.2766
  55   1.0000      -0.630379       -17.1535
  56   1.0000      -0.602260       -16.3883
  57   1.0000      -0.599859       -16.3230
  58   1.0000      -0.594644       -16.1811
  59   1.0000      -0.582810       -15.8591
  60   1.0000      -0.579357       -15.7651
  61   1.0000      -0.558234       -15.1903
  62   1.0000      -0.556008       -15.1297
  63   1.0000      -0.541496       -14.7349
  64   1.0000      -0.531994       -14.4763
  65   1.0000      -0.527983       -14.3671
  66   1.0000      -0.505539       -13.7564
  67   1.0000      -0.470835       -12.8121
  68   1.0000      -0.460908       -12.5419
  69   1.0000      -0.446559       -12.1515
  70   1.0000      -0.425936       -11.5903
  71   1.0000      -0.424918       -11.5626
  72   1.0000      -0.420665       -11.4469
  73   1.0000      -0.413395       -11.2490
  74   1.0000      -0.412368       -11.2211
  75   1.0000      -0.409122       -11.1328
  76   1.0000      -0.405663       -11.0386
  77   0.0000       0.006005         0.1634
  78   0.0000       0.014471         0.3938
  79   0.0000       0.020801         0.5660
  80   0.0000       0.020880         0.5682
  81   0.0000       0.030202         0.8218

                 SPIN DOWN ORBITALS
  NO   OCC          E(Eh)            E(eV)
   0   1.0000    -261.541674     -7116.9108
   1   1.0000    -104.772738     -2851.0111
   2   1.0000    -104.772518     -2851.0052
   3   1.0000    -104.767530     -2850.8694
   4   1.0000     -32.051017      -872.1525
   5   1.0000     -27.529173      -749.1069
   6   1.0000     -27.528954      -749.1009
   7   1.0000     -27.528354      -749.0846
   8   1.0000     -20.534850      -558.7817
   9   1.0000     -11.399577      -310.1983
  10   1.0000     -11.358011      -309.0672
  11   1.0000     -11.288602      -307.1785
  12   1.0000     -11.282547      -307.0137
  13   1.0000     -11.276936      -306.8610
  14   1.0000     -11.264324      -306.5178
  15   1.0000     -11.243509      -305.9514
  16   1.0000     -11.237354      -305.7840
  17   1.0000     -10.499216      -285.6982
  18   1.0000     -10.498901      -285.6896
  19   1.0000     -10.493956      -285.5551
  20   1.0000      -7.965054      -216.7401
  21   1.0000      -7.964828      -216.7340
  22   1.0000      -7.964633      -216.7287
  23   1.0000      -7.964554      -216.7265
  24   1.0000      -7.964322      -216.7202
  25   1.0000      -7.964220      -216.7174
  26   1.0000      -7.959946      -216.6011
  27   1.0000      -7.959182      -216.5804
  28   1.0000      -7.959110      -216.5784
  29   1.0000      -4.126366      -112.2841
  30   1.0000      -2.648267       -72.0630
  31   1.0000      -2.648103       -72.0585
  32   1.0000      -2.647503       -72.0422
  33   1.0000      -1.350503       -36.7491
  34   1.0000      -1.187784       -32.3212
  35   1.0000      -1.085124       -29.5277
  36   1.0000      -1.039002       -28.2727
  37   1.0000      -1.030885       -28.0518
  38   1.0000      -1.021203       -27.7884
  39   1.0000      -1.016407       -27.6578
  40   1.0000      -1.014242       -27.5989
  41   1.0000      -0.970523       -26.4093
  42   1.0000      -0.933632       -25.4054
  43   1.0000      -0.797330       -21.6964
  44   1.0000      -0.769857       -20.9489
  45   1.0000      -0.705476       -19.1970
  46   1.0000      -0.690762       -18.7966
  47   1.0000      -0.676357       -18.4046
  48   1.0000      -0.644772       -17.5451
  49   1.0000      -0.633023       -17.2254
  50   1.0000      -0.629866       -17.1395
  51   1.0000      -0.601537       -16.3687
  52   1.0000      -0.599797       -16.3213
  53   1.0000      -0.594468       -16.1763
  54   1.0000      -0.581445       -15.8219
  55   1.0000      -0.579110       -15.7584
  56   1.0000      -0.558174       -15.1887
  57   1.0000      -0.554775       -15.0962
  58   1.0000      -0.540747       -14.7145
  59   1.0000      -0.530235       -14.4284
  60   1.0000      -0.522136       -14.2080
  61   1.0000      -0.499656       -13.5963
  62   1.0000      -0.468903       -12.7595
  63   1.0000      -0.463159       -12.6032
  64   1.0000      -0.454816       -12.3762
  65   1.0000      -0.435120       -11.8402
  66   1.0000      -0.432744       -11.7756
  67   1.0000      -0.430619       -11.7178
  68   1.0000      -0.426392       -11.6027
  69   1.0000      -0.409721       -11.1491
  70   1.0000      -0.398010       -10.8304
  71   1.0000      -0.395581       -10.7643
  72   0.0000       0.006004         0.1634
  73   0.0000       0.014307         0.3893
  74   0.0000       0.020773         0.5653
  75   0.0000       0.020883         0.5682
  76   0.0000       0.030235         0.8227

E(0)                                       ...  -3028.427733067
E(0)                                       ...  -3028.427733067
E(CORR)(strong-pairs)                      ...     -2.868839498
E(CORR)(weak-pairs)                        ...     -0.036170975
E(CORR)(corrected)                         ...     -2.905010474
E(TOT)                                     ...  -3031.332743540
E(CCSD(T))                                 ...  -3031.450669043
FINAL SINGLE POINT ENERGY     -3031.450669043447

DIPOLE MOMENT
-------------
                                X             Y             Z
Electronic contribution:     39.92282       4.55689       2.36059
Nuclear contribution   :    -44.84097      -4.12705      -2.80214
                        -----------------------------------------
Total Dipole Moment    :     -4.91815       0.42984      -0.44156
                        -----------------------------------------
Magnitude (a.u.)       :      4.95661
Magnitude (Debye)      :     12.59870

Rotational constants in cm-1:     0.019120     0.011783     0.010743
Rotational constants in MHz :   573.211347   353.232462   322.077356

                             ****ORCA TERMINATED NORMALLY****
TOTAL RUN TIME: 0 days 20 hours 16 minutes 51 seconds 923 msec
