                         Program Version 4.1.2  - RELEASE  -
|  1> ! aug-cc-pVTZ aug-cc-pVTZ/C DLPNO-CCSD(T1) TightSCF NormalPNO UNO MiniPrint AutoAux
|  2> %pal nproc 10 end
|  3> %maxcore 20000
|  4> %mdci
|  5>      density none
|  6> end
|  7>
|  8> * xyz 0 6
|  9>  O      0.18395600      0.40722800     -0.87775300
| 10>  C      0.94999100      1.37524800     -0.67130100
| 11>  C      3.11589200      0.08454000      0.54646100
| 12>  C      2.66195300     -0.93949700     -0.20256500
| 13>  C      3.11607200     -1.13256200     -1.62473800
| 14> Fe     -1.48506100     -0.16855600      0.01726600
| 15> Cl     -2.06689900     -1.98087900     -1.03070000
| 16>  C      1.72548400     -2.00289500      0.29371900
| 17> Cl     -2.73998000      1.58792000     -0.33954700
| 18> Cl     -1.06072600     -0.45349000      2.15036100
| 19>  H      3.84150400      0.75580600      0.08513100
| 20>  H      2.23706400     -2.97489000      0.29893800
| 21>  H      1.34135500     -1.81756900      1.29643900
| 22>  H      0.87193400     -2.11289500     -0.38707300
| 23>  H      3.62293200     -2.10074200     -1.73016400
| 24>  H      2.25747800     -1.15961100     -2.30891800
| 25>  H      3.81008300     -0.35305700     -1.95253600
| 26>  C      2.89340900      0.29478900      2.01999800
| 27>  H      3.71225200     -0.15815600      2.59577000
| 28>  H      2.88620800      1.35950000      2.27598100
| 29>  H      1.95867000     -0.14365800      2.37805900
| 30>  C      0.79951500      2.23585600      0.54241800
| 31>  H      1.68395600      2.84780700      0.72311000
| 32>  H     -0.05380300      2.90156900      0.34364300
| 33>  H      0.55019100      1.64600800      1.42509600
| 34>  C      1.78441400      1.87498600     -1.80969600
| 35>  H      1.22414900      2.70849600     -2.25883200
| 36>  H      2.74468900      2.26702700     -1.47120200
| 37>  H      1.92018600      1.10583500     -2.56805700
| 38> *
| 39>
| 40>
| 41>                          ****END OF INPUT****

CARTESIAN COORDINATES (ANGSTROEM)
---------------------------------
  O      0.183956    0.407228   -0.877753
  C      0.949991    1.375248   -0.671301
  C      3.115892    0.084540    0.546461
  C      2.661953   -0.939497   -0.202565
  C      3.116072   -1.132562   -1.624738
  Fe    -1.485061   -0.168556    0.017266
  Cl    -2.066899   -1.980879   -1.030700
  C      1.725484   -2.002895    0.293719
  Cl    -2.739980    1.587920   -0.339547
  Cl    -1.060726   -0.453490    2.150361
  H      3.841504    0.755806    0.085131
  H      2.237064   -2.974890    0.298938
  H      1.341355   -1.817569    1.296439
  H      0.871934   -2.112895   -0.387073
  H      3.622932   -2.100742   -1.730164
  H      2.257478   -1.159611   -2.308918
  H      3.810083   -0.353057   -1.952536
  C      2.893409    0.294789    2.019998
  H      3.712252   -0.158156    2.595770
  H      2.886208    1.359500    2.275981
  H      1.958670   -0.143658    2.378059
  C      0.799515    2.235856    0.542418
  H      1.683956    2.847807    0.723110
  H     -0.053803    2.901569    0.343643
  H      0.550191    1.646008    1.425096
  C      1.784414    1.874986   -1.809696
  H      1.224149    2.708496   -2.258832
  H      2.744689    2.267027   -1.471202
  H      1.920186    1.105835   -2.568057

ORBITAL ENERGIES
----------------
                 SPIN UP ORBITALS
  NO   OCC          E(Eh)            E(eV)
   0   1.0000    -261.577827     -7117.8946
   1   1.0000    -104.795241     -2851.6235
   2   1.0000    -104.792135     -2851.5390
   3   1.0000    -104.790108     -2851.4838
   4   1.0000     -32.245504      -877.4448
   5   1.0000     -27.722028      -754.3547
   6   1.0000     -27.720819      -754.3218
   7   1.0000     -27.720622      -754.3165
   8   1.0000     -20.625338      -561.2440
   9   1.0000     -11.422173      -310.8131
  10   1.0000     -11.279020      -306.9177
  11   1.0000     -11.273338      -306.7631
  12   1.0000     -11.261518      -306.4415
  13   1.0000     -11.241243      -305.8898
  14   1.0000     -11.240279      -305.8635
  15   1.0000     -11.235155      -305.7241
  16   1.0000     -11.226966      -305.5013
  17   1.0000     -10.521972      -286.3174
  18   1.0000     -10.518835      -286.2320
  19   1.0000     -10.516757      -286.1755
  20   1.0000      -7.988796      -217.3862
  21   1.0000      -7.988058      -217.3661
  22   1.0000      -7.988001      -217.3646
  23   1.0000      -7.985719      -217.3025
  24   1.0000      -7.984930      -217.2810
  25   1.0000      -7.984876      -217.2795
  26   1.0000      -7.983541      -217.2432
  27   1.0000      -7.982889      -217.2255
  28   1.0000      -7.982844      -217.2242
  29   1.0000      -4.600297      -125.1804
  30   1.0000      -3.213463       -87.4428
  31   1.0000      -3.211654       -87.3935
  32   1.0000      -3.211519       -87.3899
  33   1.0000      -1.468958       -39.9724
  34   1.0000      -1.121872       -30.5277
  35   1.0000      -1.102583       -30.0028
  36   1.0000      -1.068606       -29.0783
  37   1.0000      -1.062791       -28.9200
  38   1.0000      -1.059913       -28.8417
  39   1.0000      -1.021130       -27.7863
  40   1.0000      -1.009201       -27.4617
  41   1.0000      -0.955409       -25.9980
  42   1.0000      -0.944289       -25.6954
  43   1.0000      -0.929160       -25.2837
  44   1.0000      -0.929022       -25.2800
  45   1.0000      -0.918181       -24.9850
  46   1.0000      -0.917552       -24.9679
  47   1.0000      -0.893130       -24.3033
  48   1.0000      -0.816372       -22.2146
  49   1.0000      -0.725843       -19.7512
  50   1.0000      -0.715066       -19.4579
  51   1.0000      -0.704953       -19.1827
  52   1.0000      -0.684692       -18.6314
  53   1.0000      -0.651802       -17.7364
  54   1.0000      -0.621493       -16.9117
  55   1.0000      -0.618138       -16.8204
  56   1.0000      -0.604318       -16.4443
  57   1.0000      -0.599821       -16.3219
  58   1.0000      -0.586302       -15.9541
  59   1.0000      -0.579887       -15.7795
  60   1.0000      -0.561049       -15.2669
  61   1.0000      -0.549161       -14.9434
  62   1.0000      -0.546813       -14.8795
  63   1.0000      -0.537789       -14.6340
  64   1.0000      -0.537419       -14.6239
  65   1.0000      -0.523787       -14.2530
  66   1.0000      -0.505662       -13.7598
  67   1.0000      -0.489841       -13.3292
  68   1.0000      -0.478119       -13.0103
  69   1.0000      -0.477983       -13.0066
  70   1.0000      -0.448340       -12.2000
  71   1.0000      -0.441961       -12.0264
  72   1.0000      -0.440112       -11.9761
  73   1.0000      -0.431525       -11.7424
  74   1.0000      -0.430570       -11.7164
  75   1.0000      -0.429279       -11.6813
  76   1.0000      -0.357048        -9.7158
  77   0.0000       0.012709         0.3458
  78   0.0000       0.023841         0.6487
  79   0.0000       0.024605         0.6695
  80   0.0000       0.030806         0.8383
  81   0.0000       0.039438         1.0732

                 SPIN DOWN ORBITALS
  NO   OCC          E(Eh)            E(eV)
   0   1.0000    -261.574242     -7117.7970
   1   1.0000    -104.793743     -2851.5827
   2   1.0000    -104.790572     -2851.4964
   3   1.0000    -104.788532     -2851.4409
   4   1.0000     -32.083527      -873.0371
   5   1.0000     -27.561472      -749.9858
   6   1.0000     -27.561352      -749.9825
   7   1.0000     -27.561271      -749.9803
   8   1.0000     -20.621950      -561.1518
   9   1.0000     -11.422106      -310.8113
  10   1.0000     -11.278915      -306.9149
  11   1.0000     -11.273331      -306.7629
  12   1.0000     -11.261558      -306.4426
  13   1.0000     -11.241185      -305.8882
  14   1.0000     -11.240273      -305.8634
  15   1.0000     -11.235160      -305.7242
  16   1.0000     -11.226975      -305.5015
  17   1.0000     -10.520373      -286.2739
  18   1.0000     -10.517166      -286.1866
  19   1.0000     -10.515084      -286.1300
  20   1.0000      -7.986301      -217.3183
  21   1.0000      -7.985539      -217.2976
  22   1.0000      -7.985502      -217.2965
  23   1.0000      -7.983041      -217.2296
  24   1.0000      -7.982357      -217.2110
  25   1.0000      -7.982265      -217.2085
  26   1.0000      -7.981080      -217.1762
  27   1.0000      -7.980163      -217.1513
  28   1.0000      -7.980081      -217.1490
  29   1.0000      -4.158260      -113.1520
  30   1.0000      -2.679797       -72.9210
  31   1.0000      -2.679765       -72.9201
  32   1.0000      -2.679337       -72.9085
  33   1.0000      -1.460717       -39.7481
  34   1.0000      -1.121575       -30.5196
  35   1.0000      -1.100359       -29.9423
  36   1.0000      -1.052845       -28.6494
  37   1.0000      -1.040241       -28.3064
  38   1.0000      -1.037014       -28.2186
  39   1.0000      -1.020219       -27.7616
  40   1.0000      -1.008914       -27.4539
  41   1.0000      -0.955282       -25.9945
  42   1.0000      -0.893216       -24.3057
  43   1.0000      -0.828864       -22.5545
  44   1.0000      -0.725919       -19.7533
  45   1.0000      -0.716746       -19.5036
  46   1.0000      -0.704182       -19.1618
  47   1.0000      -0.684117       -18.6158
  48   1.0000      -0.651751       -17.7351
  49   1.0000      -0.620932       -16.8964
  50   1.0000      -0.618059       -16.8182
  51   1.0000      -0.604148       -16.4397
  52   1.0000      -0.599739       -16.3197
  53   1.0000      -0.586024       -15.9465
  54   1.0000      -0.578467       -15.7409
  55   1.0000      -0.560197       -15.2437
  56   1.0000      -0.548787       -14.9333
  57   1.0000      -0.544895       -14.8273
  58   1.0000      -0.537603       -14.6289
  59   1.0000      -0.526990       -14.3401
  60   1.0000      -0.523140       -14.2354
  61   1.0000      -0.507559       -13.8114
  62   1.0000      -0.489725       -13.3261
  63   1.0000      -0.486602       -13.2411
  64   1.0000      -0.484247       -13.1770
  65   1.0000      -0.455389       -12.3918
  66   1.0000      -0.452261       -12.3066
  67   1.0000      -0.449195       -12.2232
  68   1.0000      -0.432765       -11.7761
  69   1.0000      -0.430707       -11.7201
  70   1.0000      -0.414602       -11.2819
  71   1.0000      -0.356632        -9.7045
  72   0.0000       0.012693         0.3454
  73   0.0000       0.023817         0.6481
  74   0.0000       0.024566         0.6685
  75   0.0000       0.030749         0.8367
  76   0.0000       0.039354         1.0709

E(0)                                       ...  -3028.470802096
E(0)                                       ...  -3028.470802096
E(CORR)(strong-pairs)                      ...     -2.865794506
E(CORR)(weak-pairs)                        ...     -0.035482923
E(CORR)(corrected)                         ...     -2.901277429
E(TOT)                                     ...  -3031.372079525
E(CCSD(T))                                 ...  -3031.489743171
FINAL SINGLE POINT ENERGY     -3031.489743170883

DIPOLE MOMENT
-------------
                                X             Y             Z
Electronic contribution:    -43.73729      -4.84347       1.73205
Nuclear contribution   :     46.91246       6.39183      -2.36122
                        -----------------------------------------
Total Dipole Moment    :      3.17517       1.54836      -0.62916
                        -----------------------------------------
Magnitude (a.u.)       :      3.58817
Magnitude (Debye)      :      9.12040

Rotational constants in cm-1:     0.018748     0.010650     0.010029
Rotational constants in MHz :   562.043647   319.273686   300.668404

                             ****ORCA TERMINATED NORMALLY****
TOTAL RUN TIME: 0 days 17 hours 6 minutes 8 seconds 232 msec
