                         Program Version 4.1.2  - RELEASE  -
|  1> ! aug-cc-pVTZ aug-cc-pVTZ/C DLPNO-CCSD(T1) TightSCF NormalPNO UNO MiniPrint AutoAux
|  2> %pal nproc 10 end
|  3> %maxcore 20000
|  4> %mdci
|  5>      density none
|  6> end
|  7>
|  8> * xyz 0 6
|  9>  O     -0.39649200     -0.09082900     -0.45441700
| 10>  C     -1.29424800     -1.12243000     -0.40429900
| 11>  C     -3.00406700     -0.01615400     -0.16942600
| 12>  C     -2.07935500      1.06499600     -0.26864200
| 13>  C     -1.87732000      1.75238100     -1.57623900
| 14> Fe      1.40922600      0.05419600      0.05536200
| 15> Cl      1.94685000      2.00781100     -0.81858600
| 16>  C     -1.59476000      1.78570500      0.94353000
| 17> Cl      2.38265500     -1.73882500     -0.77261500
| 18> Cl      1.41359500      0.08221500      2.26806600
| 19>  H     -3.54565600     -0.23165300     -1.08875200
| 20>  H     -2.40614100      2.46291700      1.25300900
| 21>  H     -1.38442700      1.11832700      1.77980400
| 22>  H     -0.70585500      2.38075200      0.72858500
| 23>  H     -2.58485900      2.59652200     -1.59366100
| 24>  H     -0.86453100      2.14928700     -1.66998400
| 25>  H     -2.11245100      1.10815500     -2.42556400
| 26>  C     -3.75119400     -0.34364600      1.10049200
| 27>  H     -4.61126500      0.32667200      1.22995900
| 28>  H     -4.14131600     -1.36551100      1.06285400
| 29>  H     -3.12948300     -0.25673200      1.99443800
| 30>  C     -1.20190500     -2.00227900      0.80783700
| 31>  H     -2.03890700     -2.70139600      0.87240000
| 32>  H     -0.27400100     -2.58377800      0.70353000
| 33>  H     -1.11378500     -1.42291800      1.72783800
| 34>  C     -1.48152100     -1.82245300     -1.72173000
| 35>  H     -0.53874700     -2.34701000     -1.93358900
| 36>  H     -2.29556600     -2.55128000     -1.68670500
| 37>  H     -1.64740800     -1.11195600     -2.53408000
| 38> *
| 39>
| 40>
| 41>                          ****END OF INPUT****

CARTESIAN COORDINATES (ANGSTROEM)
---------------------------------
  O     -0.396492   -0.090829   -0.454417
  C     -1.294248   -1.122430   -0.404299
  C     -3.004067   -0.016154   -0.169426
  C     -2.079355    1.064996   -0.268642
  C     -1.877320    1.752381   -1.576239
  Fe     1.409226    0.054196    0.055362
  Cl     1.946850    2.007811   -0.818586
  C     -1.594760    1.785705    0.943530
  Cl     2.382655   -1.738825   -0.772615
  Cl     1.413595    0.082215    2.268066
  H     -3.545656   -0.231653   -1.088752
  H     -2.406141    2.462917    1.253009
  H     -1.384427    1.118327    1.779804
  H     -0.705855    2.380752    0.728585
  H     -2.584859    2.596522   -1.593661
  H     -0.864531    2.149287   -1.669984
  H     -2.112451    1.108155   -2.425564
  C     -3.751194   -0.343646    1.100492
  H     -4.611265    0.326672    1.229959
  H     -4.141316   -1.365511    1.062854
  H     -3.129483   -0.256732    1.994438
  C     -1.201905   -2.002279    0.807837
  H     -2.038907   -2.701396    0.872400
  H     -0.274001   -2.583778    0.703530
  H     -1.113785   -1.422918    1.727838
  C     -1.481521   -1.822453   -1.721730
  H     -0.538747   -2.347010   -1.933589
  H     -2.295566   -2.551280   -1.686705
  H     -1.647408   -1.111956   -2.534080

ORBITAL ENERGIES
----------------
                 SPIN UP ORBITALS
  NO   OCC          E(Eh)            E(eV)
   0   1.0000    -261.555065     -7117.2751
   1   1.0000    -104.780016     -2851.2092
   2   1.0000    -104.779323     -2851.1903
   3   1.0000    -104.778477     -2851.1673
   4   1.0000     -32.222937      -876.8307
   5   1.0000     -27.698935      -753.7263
   6   1.0000     -27.698565      -753.7163
   7   1.0000     -27.698379      -753.7112
   8   1.0000     -20.562332      -559.5295
   9   1.0000     -11.389348      -309.9199
  10   1.0000     -11.373366      -309.4850
  11   1.0000     -11.270615      -306.6890
  12   1.0000     -11.266268      -306.5707
  13   1.0000     -11.263945      -306.5075
  14   1.0000     -11.256573      -306.3069
  15   1.0000     -11.254981      -306.2636
  16   1.0000     -11.252047      -306.1838
  17   1.0000     -10.506538      -285.8974
  18   1.0000     -10.505878      -285.8795
  19   1.0000     -10.505061      -285.8573
  20   1.0000      -7.973338      -216.9656
  21   1.0000      -7.972697      -216.9481
  22   1.0000      -7.972636      -216.9465
  23   1.0000      -7.972562      -216.9444
  24   1.0000      -7.971977      -216.9285
  25   1.0000      -7.971946      -216.9277
  26   1.0000      -7.971905      -216.9266
  27   1.0000      -7.971123      -216.9053
  28   1.0000      -7.971064      -216.9037
  29   1.0000      -4.578318      -124.5824
  30   1.0000      -3.190959       -86.8304
  31   1.0000      -3.190367       -86.8143
  32   1.0000      -3.189797       -86.7988
  33   1.0000      -1.394272       -37.9401
  34   1.0000      -1.162690       -31.6384
  35   1.0000      -1.088086       -29.6083
  36   1.0000      -1.051977       -28.6258
  37   1.0000      -1.045740       -28.4560
  38   1.0000      -1.045604       -28.4523
  39   1.0000      -1.037075       -28.2202
  40   1.0000      -1.000004       -27.2115
  41   1.0000      -0.984345       -26.7854
  42   1.0000      -0.929006       -25.2795
  43   1.0000      -0.911743       -24.8098
  44   1.0000      -0.907939       -24.7063
  45   1.0000      -0.907622       -24.6977
  46   1.0000      -0.899148       -24.4671
  47   1.0000      -0.898378       -24.4461
  48   1.0000      -0.787024       -21.4160
  49   1.0000      -0.758942       -20.6519
  50   1.0000      -0.693433       -18.8693
  51   1.0000      -0.691198       -18.8084
  52   1.0000      -0.674398       -18.3513
  53   1.0000      -0.653141       -17.7729
  54   1.0000      -0.638696       -17.3798
  55   1.0000      -0.621708       -16.9175
  56   1.0000      -0.598429       -16.2841
  57   1.0000      -0.590084       -16.0570
  58   1.0000      -0.585384       -15.9291
  59   1.0000      -0.583777       -15.8854
  60   1.0000      -0.571006       -15.5379
  61   1.0000      -0.565762       -15.3952
  62   1.0000      -0.552078       -15.0228
  63   1.0000      -0.546627       -14.8745
  64   1.0000      -0.539269       -14.6743
  65   1.0000      -0.529844       -14.4178
  66   1.0000      -0.511315       -13.9136
  67   1.0000      -0.486166       -13.2292
  68   1.0000      -0.467015       -12.7081
  69   1.0000      -0.455874       -12.4050
  70   1.0000      -0.435509       -11.8508
  71   1.0000      -0.429611       -11.6903
  72   1.0000      -0.426660       -11.6100
  73   1.0000      -0.420752       -11.4492
  74   1.0000      -0.417961       -11.3733
  75   1.0000      -0.417286       -11.3549
  76   1.0000      -0.368336       -10.0229
  77   0.0000       0.010689         0.2909
  78   0.0000       0.021084         0.5737
  79   0.0000       0.023284         0.6336
  80   0.0000       0.030864         0.8398
  81   0.0000       0.038143         1.0379

                 SPIN DOWN ORBITALS
  NO   OCC          E(Eh)            E(eV)
   0   1.0000    -261.551513     -7117.1785
   1   1.0000    -104.778653     -2851.1721
   2   1.0000    -104.777890     -2851.1513
   3   1.0000    -104.777072     -2851.1291
   4   1.0000     -32.060976      -872.4235
   5   1.0000     -27.538976      -749.3736
   6   1.0000     -27.538854      -749.3703
   7   1.0000     -27.538476      -749.3600
   8   1.0000     -20.557172      -559.3891
   9   1.0000     -11.389549      -309.9254
  10   1.0000     -11.373407      -309.4861
  11   1.0000     -11.269955      -306.6711
  12   1.0000     -11.266247      -306.5702
  13   1.0000     -11.263954      -306.5078
  14   1.0000     -11.256641      -306.3088
  15   1.0000     -11.254900      -306.2614
  16   1.0000     -11.252004      -306.1826
  17   1.0000     -10.505080      -285.8578
  18   1.0000     -10.504343      -285.8377
  19   1.0000     -10.503553      -285.8162
  20   1.0000      -7.971059      -216.9035
  21   1.0000      -7.970364      -216.8846
  22   1.0000      -7.970291      -216.8826
  23   1.0000      -7.970284      -216.8825
  24   1.0000      -7.969586      -216.8635
  25   1.0000      -7.969519      -216.8616
  26   1.0000      -7.969445      -216.8596
  27   1.0000      -7.968867      -216.8439
  28   1.0000      -7.968789      -216.8418
  29   1.0000      -4.136241      -112.5528
  30   1.0000      -2.658063       -72.3296
  31   1.0000      -2.657863       -72.3241
  32   1.0000      -2.657352       -72.3102
  33   1.0000      -1.381097       -37.5816
  34   1.0000      -1.161171       -31.5971
  35   1.0000      -1.085467       -29.5371
  36   1.0000      -1.037452       -28.2305
  37   1.0000      -1.036060       -28.1926
  38   1.0000      -1.025867       -27.9153
  39   1.0000      -1.025011       -27.8920
  40   1.0000      -0.999587       -27.2001
  41   1.0000      -0.983978       -26.7754
  42   1.0000      -0.921000       -25.0617
  43   1.0000      -0.796473       -21.6731
  44   1.0000      -0.760228       -20.6869
  45   1.0000      -0.693380       -18.8678
  46   1.0000      -0.691739       -18.8232
  47   1.0000      -0.675281       -18.3753
  48   1.0000      -0.652920       -17.7668
  49   1.0000      -0.638040       -17.3619
  50   1.0000      -0.621909       -16.9230
  51   1.0000      -0.597221       -16.2512
  52   1.0000      -0.589800       -16.0493
  53   1.0000      -0.585219       -15.9246
  54   1.0000      -0.583312       -15.8727
  55   1.0000      -0.570811       -15.5326
  56   1.0000      -0.565718       -15.3940
  57   1.0000      -0.551005       -14.9936
  58   1.0000      -0.546203       -14.8629
  59   1.0000      -0.534547       -14.5458
  60   1.0000      -0.528923       -14.3927
  61   1.0000      -0.507339       -13.8054
  62   1.0000      -0.481788       -13.1101
  63   1.0000      -0.471264       -12.8238
  64   1.0000      -0.466613       -12.6972
  65   1.0000      -0.440969       -11.9994
  66   1.0000      -0.439160       -11.9501
  67   1.0000      -0.436575       -11.8798
  68   1.0000      -0.424475       -11.5506
  69   1.0000      -0.415810       -11.3148
  70   1.0000      -0.404128       -10.9969
  71   1.0000      -0.367575       -10.0022
  72   0.0000       0.010687         0.2908
  73   0.0000       0.020984         0.5710
  74   0.0000       0.023264         0.6330
  75   0.0000       0.030909         0.8411
  76   0.0000       0.038116         1.0372

E(0)                                       ...  -3028.407441247
E(0)                                       ...  -3028.407441247
E(CORR)(strong-pairs)                      ...     -2.874147037
E(CORR)(weak-pairs)                        ...     -0.036182690
E(CORR)(corrected)                         ...     -2.910329727
E(TOT)                                     ...  -3031.317770974
E(CCSD(T))                                 ...  -3031.437969468
FINAL SINGLE POINT ENERGY     -3031.437969467535

DIPOLE MOMENT
-------------
                                X             Y             Z
Electronic contribution:     41.05039       2.97752       2.15627
Nuclear contribution   :    -45.29434      -3.02629      -2.66634
                        -----------------------------------------
Total Dipole Moment    :     -4.24395      -0.04877      -0.51006
                        -----------------------------------------
Magnitude (a.u.)       :      4.27477
Magnitude (Debye)      :     10.86559

Rotational constants in cm-1:     0.019251     0.011641     0.010702
Rotational constants in MHz :   577.126454   348.983460   320.829166

                             ****ORCA TERMINATED NORMALLY****
TOTAL RUN TIME: 0 days 20 hours 52 minutes 15 seconds 938 msec
