                         Program Version 4.1.2  - RELEASE  -
|  1> ! aug-cc-pVTZ aug-cc-pVTZ/C DLPNO-CCSD(T1) TightSCF NormalPNO UNO MiniPrint AutoAux
|  2> %pal nproc 10 end
|  3> %maxcore 20000
|  4> %mdci
|  5>      density none
|  6> end
|  7>
|  8> * xyz 0 6
|  9>  O      0.28769000      0.24354900     -0.73372900
| 10>  C      1.06633700      1.22168400     -0.61089800
| 11>  C      3.24509100     -0.04149500      0.21366300
| 12>  C      2.43959900     -1.02894500     -0.23119000
| 13>  C      2.48719600     -1.49490400     -1.65948700
| 14> Fe     -1.47422500     -0.11176800      0.05603100
| 15> Cl     -2.10505000     -1.97466200     -0.87702400
| 16>  C      1.56664200     -1.85971800      0.66532200
| 17> Cl     -2.54137400      1.69538000     -0.57921800
| 18> Cl     -1.28329300     -0.20593700      2.23901800
| 19>  H      3.91228800      0.42405600     -0.51158000
| 20>  H      2.10798900     -2.77563700      0.94035300
| 21>  H      1.27782100     -1.35730100      1.58909800
| 22>  H      0.65870900     -2.18135400      0.14617500
| 23>  H      2.77470100     -2.55402500     -1.68889800
| 24>  H      1.49635800     -1.42833800     -2.12410900
| 25>  H      3.21061900     -0.93564100     -2.25993400
| 26>  C      3.47180100      0.36165300      1.64434100
| 27>  H      4.38571100     -0.11196500      2.02854100
| 28>  H      3.61708700      1.44316600      1.74348300
| 29>  H      2.65285300      0.06709900      2.30553400
| 30>  C      1.00862700      2.09426800      0.60235500
| 31>  H      1.90512200      2.70420100      0.71580200
| 32>  H      0.14899900      2.76534400      0.45298200
| 33>  H      0.81294400      1.51460000      1.50510500
| 34>  C      1.75152000      1.73982400     -1.83787900
| 35>  H      1.05973600      2.47569000     -2.27522200
| 36>  H      2.68651600      2.25198800     -1.60686200
| 37>  H      1.90519000      0.95022000     -2.57198600
| 38> *
| 39>
| 40>
| 41>                          ****END OF INPUT****

CARTESIAN COORDINATES (ANGSTROEM)
---------------------------------
  O      0.287690    0.243549   -0.733729
  C      1.066337    1.221684   -0.610898
  C      3.245091   -0.041495    0.213663
  C      2.439599   -1.028945   -0.231190
  C      2.487196   -1.494904   -1.659487
  Fe    -1.474225   -0.111768    0.056031
  Cl    -2.105050   -1.974662   -0.877024
  C      1.566642   -1.859718    0.665322
  Cl    -2.541374    1.695380   -0.579218
  Cl    -1.283293   -0.205937    2.239018
  H      3.912288    0.424056   -0.511580
  H      2.107989   -2.775637    0.940353
  H      1.277821   -1.357301    1.589098
  H      0.658709   -2.181354    0.146175
  H      2.774701   -2.554025   -1.688898
  H      1.496358   -1.428338   -2.124109
  H      3.210619   -0.935641   -2.259934
  C      3.471801    0.361653    1.644341
  H      4.385711   -0.111965    2.028541
  H      3.617087    1.443166    1.743483
  H      2.652853    0.067099    2.305534
  C      1.008627    2.094268    0.602355
  H      1.905122    2.704201    0.715802
  H      0.148999    2.765344    0.452982
  H      0.812944    1.514600    1.505105
  C      1.751520    1.739824   -1.837879
  H      1.059736    2.475690   -2.275222
  H      2.686516    2.251988   -1.606862
  H      1.905190    0.950220   -2.571986

ORBITAL ENERGIES
----------------
                 SPIN UP ORBITALS
  NO   OCC          E(Eh)            E(eV)
   0   1.0000    -261.576021     -7117.8454
   1   1.0000    -104.792952     -2851.5612
   2   1.0000    -104.790946     -2851.5066
   3   1.0000    -104.789574     -2851.4693
   4   1.0000     -32.243695      -877.3955
   5   1.0000     -27.720186      -754.3046
   6   1.0000     -27.719035      -754.2733
   7   1.0000     -27.718872      -754.2688
   8   1.0000     -20.614895      -560.9598
   9   1.0000     -11.423334      -310.8447
  10   1.0000     -11.277979      -306.8894
  11   1.0000     -11.272852      -306.7499
  12   1.0000     -11.268870      -306.6415
  13   1.0000     -11.242724      -305.9301
  14   1.0000     -11.241782      -305.9044
  15   1.0000     -11.239076      -305.8308
  16   1.0000     -11.231278      -305.6186
  17   1.0000     -10.519652      -286.2543
  18   1.0000     -10.517611      -286.1988
  19   1.0000     -10.516188      -286.1600
  20   1.0000      -7.986483      -217.3233
  21   1.0000      -7.985737      -217.3029
  22   1.0000      -7.985685      -217.3015
  23   1.0000      -7.984510      -217.2696
  24   1.0000      -7.983703      -217.2476
  25   1.0000      -7.983627      -217.2455
  26   1.0000      -7.982973      -217.2277
  27   1.0000      -7.982313      -217.2098
  28   1.0000      -7.982265      -217.2085
  29   1.0000      -4.598586      -125.1339
  30   1.0000      -3.211763       -87.3965
  31   1.0000      -3.209974       -87.3478
  32   1.0000      -3.209839       -87.3442
  33   1.0000      -1.464772       -39.8585
  34   1.0000      -1.127133       -30.6708
  35   1.0000      -1.102311       -29.9954
  36   1.0000      -1.066486       -29.0206
  37   1.0000      -1.060962       -28.8703
  38   1.0000      -1.058732       -28.8096
  39   1.0000      -1.021936       -27.8083
  40   1.0000      -1.011853       -27.5339
  41   1.0000      -0.959298       -26.1038
  42   1.0000      -0.943000       -25.6603
  43   1.0000      -0.927599       -25.2412
  44   1.0000      -0.927442       -25.2370
  45   1.0000      -0.916500       -24.9392
  46   1.0000      -0.916322       -24.9344
  47   1.0000      -0.897512       -24.4225
  48   1.0000      -0.813485       -22.1360
  49   1.0000      -0.729869       -19.8607
  50   1.0000      -0.712331       -19.3835
  51   1.0000      -0.704126       -19.1602
  52   1.0000      -0.689868       -18.7723
  53   1.0000      -0.655135       -17.8271
  54   1.0000      -0.622667       -16.9436
  55   1.0000      -0.621471       -16.9111
  56   1.0000      -0.602514       -16.3952
  57   1.0000      -0.600908       -16.3515
  58   1.0000      -0.585835       -15.9414
  59   1.0000      -0.580224       -15.7887
  60   1.0000      -0.559291       -15.2191
  61   1.0000      -0.555760       -15.1230
  62   1.0000      -0.552824       -15.0431
  63   1.0000      -0.538711       -14.6591
  64   1.0000      -0.533072       -14.5056
  65   1.0000      -0.526627       -14.3303
  66   1.0000      -0.502679       -13.6786
  67   1.0000      -0.493834       -13.4379
  68   1.0000      -0.477747       -13.0002
  69   1.0000      -0.475267       -12.9327
  70   1.0000      -0.446893       -12.1606
  71   1.0000      -0.440474       -11.9859
  72   1.0000      -0.439050       -11.9472
  73   1.0000      -0.430492       -11.7143
  74   1.0000      -0.428881       -11.6704
  75   1.0000      -0.428563       -11.6618
  76   1.0000      -0.358002        -9.7417
  77   0.0000       0.012952         0.3524
  78   0.0000       0.023848         0.6489
  79   0.0000       0.024512         0.6670
  80   0.0000       0.030524         0.8306
  81   0.0000       0.039612         1.0779

                 SPIN DOWN ORBITALS
  NO   OCC          E(Eh)            E(eV)
   0   1.0000    -261.572447     -7117.7481
   1   1.0000    -104.791449     -2851.5203
   2   1.0000    -104.789407     -2851.4647
   3   1.0000    -104.788027     -2851.4272
   4   1.0000     -32.081722      -872.9880
   5   1.0000     -27.559666      -749.9366
   6   1.0000     -27.559561      -749.9338
   7   1.0000     -27.559437      -749.9304
   8   1.0000     -20.611463      -560.8664
   9   1.0000     -11.423183      -310.8406
  10   1.0000     -11.277881      -306.8867
  11   1.0000     -11.272851      -306.7499
  12   1.0000     -11.268973      -306.6443
  13   1.0000     -11.242590      -305.9264
  14   1.0000     -11.241768      -305.9041
  15   1.0000     -11.239059      -305.8303
  16   1.0000     -11.231282      -305.6187
  17   1.0000     -10.518047      -286.2106
  18   1.0000     -10.515968      -286.1540
  19   1.0000     -10.514545      -286.1153
  20   1.0000      -7.983969      -217.2548
  21   1.0000      -7.983220      -217.2345
  22   1.0000      -7.983171      -217.2331
  23   1.0000      -7.981826      -217.1965
  24   1.0000      -7.981194      -217.1793
  25   1.0000      -7.981090      -217.1765
  26   1.0000      -7.980540      -217.1615
  27   1.0000      -7.979648      -217.1373
  28   1.0000      -7.979568      -217.1351
  29   1.0000      -4.156493      -113.1039
  30   1.0000      -2.678044       -72.8733
  31   1.0000      -2.677975       -72.8714
  32   1.0000      -2.677619       -72.8617
  33   1.0000      -1.456226       -39.6259
  34   1.0000      -1.126811       -30.6621
  35   1.0000      -1.100004       -29.9326
  36   1.0000      -1.050880       -28.5959
  37   1.0000      -1.038376       -28.2556
  38   1.0000      -1.036284       -28.1987
  39   1.0000      -1.021263       -27.7900
  40   1.0000      -1.011337       -27.5199
  41   1.0000      -0.959100       -26.0984
  42   1.0000      -0.897715       -24.4281
  43   1.0000      -0.826194       -22.4819
  44   1.0000      -0.729934       -19.8625
  45   1.0000      -0.714526       -19.4432
  46   1.0000      -0.703289       -19.1375
  47   1.0000      -0.689171       -18.7533
  48   1.0000      -0.655103       -17.8263
  49   1.0000      -0.622293       -16.9335
  50   1.0000      -0.621277       -16.9058
  51   1.0000      -0.602317       -16.3899
  52   1.0000      -0.600909       -16.3516
  53   1.0000      -0.585510       -15.9325
  54   1.0000      -0.579448       -15.7676
  55   1.0000      -0.558412       -15.1952
  56   1.0000      -0.554921       -15.1002
  57   1.0000      -0.551288       -15.0013
  58   1.0000      -0.538629       -14.6568
  59   1.0000      -0.528102       -14.3704
  60   1.0000      -0.521320       -14.1858
  61   1.0000      -0.503384       -13.6978
  62   1.0000      -0.493655       -13.4330
  63   1.0000      -0.484806       -13.1922
  64   1.0000      -0.483239       -13.1496
  65   1.0000      -0.453918       -12.3517
  66   1.0000      -0.450766       -12.2660
  67   1.0000      -0.448015       -12.1911
  68   1.0000      -0.431792       -11.7497
  69   1.0000      -0.429604       -11.6901
  70   1.0000      -0.413519       -11.2524
  71   1.0000      -0.357278        -9.7220
  72   0.0000       0.012938         0.3521
  73   0.0000       0.023822         0.6482
  74   0.0000       0.024478         0.6661
  75   0.0000       0.030481         0.8294
  76   0.0000       0.039513         1.0752

E(0)                                       ...  -3028.457098312
E(0)                                       ...  -3028.457098312
E(CORR)(strong-pairs)                      ...     -2.868423588
E(CORR)(weak-pairs)                        ...     -0.035898189
E(CORR)(corrected)                         ...     -2.904321777
E(TOT)                                     ...  -3031.361420089
E(CCSD(T))                                 ...  -3031.479568951
FINAL SINGLE POINT ENERGY     -3031.479568950858

DIPOLE MOMENT
-------------
                                X             Y             Z
Electronic contribution:    -43.60915      -2.97978       2.24150
Nuclear contribution   :     46.96336       4.21809      -2.84949
                        -----------------------------------------
Total Dipole Moment    :      3.35421       1.23831      -0.60799
                        -----------------------------------------
Magnitude (a.u.)       :      3.62682
Magnitude (Debye)      :      9.21863

Rotational constants in cm-1:     0.019109     0.010804     0.010183
Rotational constants in MHz :   572.875755   323.896382   305.268126

                             ****ORCA TERMINATED NORMALLY****
TOTAL RUN TIME: 0 days 17 hours 58 minutes 37 seconds 260 msec
