                         Program Version 4.1.2  - RELEASE  -
|  1> ! aug-cc-pVTZ aug-cc-pVTZ/C DLPNO-CCSD(T1) TightSCF NormalPNO UNO MiniPrint AutoAux
|  2> %pal nproc 10 end
|  3> %maxcore 20000
|  4> %mdci
|  5>      density none
|  6> end
|  7>
|  8> * xyz 0 6
|  9>  O     -0.23694900     -0.29050100     -0.79253500
| 10>  C     -1.10489400     -1.20463200     -0.61315600
| 11>  C     -2.83089800     -0.29621100      0.60573000
| 12>  C     -2.72789900      0.88664300     -0.06315100
| 13>  C     -3.45565700      1.13428700     -1.35054500
| 14> Fe      1.48018000      0.16110800     -0.02595700
| 15> Cl      2.00160900      2.04978600     -0.98912600
| 16>  C     -1.82643600      1.99263200      0.37909600
| 17> Cl      2.71474000     -1.56728100     -0.55982500
| 18> Cl      1.20907700      0.35712700      2.15082800
| 19>  H     -3.55665000     -1.01114600      0.22062600
| 20>  H     -2.34664900      2.95690500      0.33682600
| 21>  H     -1.41523400      1.85300400      1.37841800
| 22>  H     -0.98381600      2.06435600     -0.32482900
| 23>  H     -4.11596500      2.00326200     -1.23138000
| 24>  H     -2.75365400      1.39082600     -2.15528200
| 25>  H     -4.06805200      0.28475900     -1.66136400
| 26>  C     -2.46160000     -0.47426500      2.06191700
| 27>  H     -3.17618000      0.07578900      2.68723000
| 28>  H     -2.51879000     -1.52316700      2.36053400
| 29>  H     -1.46205800     -0.10778900      2.30343500
| 30>  C     -0.81940800     -2.28505800      0.39759100
| 31>  H     -1.69111100     -2.90664500      0.60700000
| 32>  H     -0.04618100     -2.91348800     -0.06727300
| 33>  H     -0.39980900     -1.88660600      1.32072600
| 34>  C     -1.88435000     -1.61857800     -1.83742700
| 35>  H     -1.22511900     -2.30165400     -2.39067300
| 36>  H     -2.80203100     -2.15719200     -1.59610600
| 37>  H     -2.09317600     -0.76866700     -2.48496000
| 38> *
| 39>
| 40>
| 41>                          ****END OF INPUT****

CARTESIAN COORDINATES (ANGSTROEM)
---------------------------------
  O     -0.236949   -0.290501   -0.792535
  C     -1.104894   -1.204632   -0.613156
  C     -2.830898   -0.296211    0.605730
  C     -2.727899    0.886643   -0.063151
  C     -3.455657    1.134287   -1.350545
  Fe     1.480180    0.161108   -0.025957
  Cl     2.001609    2.049786   -0.989126
  C     -1.826436    1.992632    0.379096
  Cl     2.714740   -1.567281   -0.559825
  Cl     1.209077    0.357127    2.150828
  H     -3.556650   -1.011146    0.220626
  H     -2.346649    2.956905    0.336826
  H     -1.415234    1.853004    1.378418
  H     -0.983816    2.064356   -0.324829
  H     -4.115965    2.003262   -1.231380
  H     -2.753654    1.390826   -2.155282
  H     -4.068052    0.284759   -1.661364
  C     -2.461600   -0.474265    2.061917
  H     -3.176180    0.075789    2.687230
  H     -2.518790   -1.523167    2.360534
  H     -1.462058   -0.107789    2.303435
  C     -0.819408   -2.285058    0.397591
  H     -1.691111   -2.906645    0.607000
  H     -0.046181   -2.913488   -0.067273
  H     -0.399809   -1.886606    1.320726
  C     -1.884350   -1.618578   -1.837427
  H     -1.225119   -2.301654   -2.390673
  H     -2.802031   -2.157192   -1.596106
  H     -2.093176   -0.768667   -2.484960

ORBITAL ENERGIES
----------------
                 SPIN UP ORBITALS
  NO   OCC          E(Eh)            E(eV)
   0   1.0000    -261.566963     -7117.5989
   1   1.0000    -104.788372     -2851.4366
   2   1.0000    -104.784486     -2851.3308
   3   1.0000    -104.782520     -2851.2773
   4   1.0000     -32.234768      -877.1526
   5   1.0000     -27.711088      -754.0570
   6   1.0000     -27.710208      -754.0331
   7   1.0000     -27.710013      -754.0278
   8   1.0000     -20.599436      -560.5391
   9   1.0000     -11.414972      -310.6172
  10   1.0000     -11.296594      -307.3959
  11   1.0000     -11.271450      -306.7117
  12   1.0000     -11.266877      -306.5873
  13   1.0000     -11.257786      -306.3399
  14   1.0000     -11.257070      -306.3205
  15   1.0000     -11.241095      -305.8858
  16   1.0000     -11.240267      -305.8632
  17   1.0000     -10.515072      -286.1297
  18   1.0000     -10.511157      -286.0231
  19   1.0000     -10.509138      -285.9682
  20   1.0000      -7.981922      -217.1991
  21   1.0000      -7.981127      -217.1775
  22   1.0000      -7.981099      -217.1768
  23   1.0000      -7.978014      -217.0928
  24   1.0000      -7.977258      -217.0722
  25   1.0000      -7.977202      -217.0707
  26   1.0000      -7.975948      -217.0366
  27   1.0000      -7.975262      -217.0179
  28   1.0000      -7.975195      -217.0161
  29   1.0000      -4.589863      -124.8965
  30   1.0000      -3.202907       -87.1555
  31   1.0000      -3.201427       -87.1152
  32   1.0000      -3.201223       -87.1097
  33   1.0000      -1.442627       -39.2559
  34   1.0000      -1.144773       -31.1509
  35   1.0000      -1.092833       -29.7375
  36   1.0000      -1.060500       -28.8577
  37   1.0000      -1.054598       -28.6971
  38   1.0000      -1.051365       -28.6091
  39   1.0000      -1.028746       -27.9936
  40   1.0000      -1.002830       -27.2884
  41   1.0000      -0.973123       -26.4800
  42   1.0000      -0.935484       -25.4558
  43   1.0000      -0.918984       -25.0068
  44   1.0000      -0.918861       -25.0035
  45   1.0000      -0.909079       -24.7373
  46   1.0000      -0.908087       -24.7103
  47   1.0000      -0.906993       -24.6805
  48   1.0000      -0.804272       -21.8854
  49   1.0000      -0.744814       -20.2674
  50   1.0000      -0.699486       -19.0340
  51   1.0000      -0.690463       -18.7885
  52   1.0000      -0.682374       -18.5683
  53   1.0000      -0.666339       -18.1320
  54   1.0000      -0.633441       -17.2368
  55   1.0000      -0.622257       -16.9325
  56   1.0000      -0.605490       -16.4762
  57   1.0000      -0.596078       -16.2201
  58   1.0000      -0.582816       -15.8592
  59   1.0000      -0.575635       -15.6638
  60   1.0000      -0.563619       -15.3368
  61   1.0000      -0.560335       -15.2475
  62   1.0000      -0.552026       -15.0214
  63   1.0000      -0.544089       -14.8054
  64   1.0000      -0.536191       -14.5905
  65   1.0000      -0.528532       -14.3821
  66   1.0000      -0.507269       -13.8035
  67   1.0000      -0.493472       -13.4281
  68   1.0000      -0.471839       -12.8394
  69   1.0000      -0.468555       -12.7500
  70   1.0000      -0.440330       -11.9820
  71   1.0000      -0.435286       -11.8447
  72   1.0000      -0.433145       -11.7865
  73   1.0000      -0.424762       -11.5584
  74   1.0000      -0.423342       -11.5197
  75   1.0000      -0.422113       -11.4863
  76   1.0000      -0.369827       -10.0635
  77   0.0000       0.011634         0.3166
  78   0.0000       0.021908         0.5961
  79   0.0000       0.023306         0.6342
  80   0.0000       0.029534         0.8037
  81   0.0000       0.038138         1.0378

                 SPIN DOWN ORBITALS
  NO   OCC          E(Eh)            E(eV)
   0   1.0000    -261.563394     -7117.5018
   1   1.0000    -104.786920     -2851.3971
   2   1.0000    -104.782963     -2851.2894
   3   1.0000    -104.781006     -2851.2361
   4   1.0000     -32.072730      -872.7433
   5   1.0000     -27.550655      -749.6914
   6   1.0000     -27.550597      -749.6899
   7   1.0000     -27.550405      -749.6846
   8   1.0000     -20.595480      -560.4315
   9   1.0000     -11.414871      -310.6144
  10   1.0000     -11.296437      -307.3917
  11   1.0000     -11.271339      -306.7087
  12   1.0000     -11.266862      -306.5869
  13   1.0000     -11.257807      -306.3405
  14   1.0000     -11.257130      -306.3221
  15   1.0000     -11.241129      -305.8867
  16   1.0000     -11.240258      -305.8630
  17   1.0000     -10.513517      -286.0873
  18   1.0000     -10.509530      -285.9788
  19   1.0000     -10.507527      -285.9244
  20   1.0000      -7.979414      -217.1309
  21   1.0000      -7.978755      -217.1130
  22   1.0000      -7.978705      -217.1116
  23   1.0000      -7.975439      -217.0227
  24   1.0000      -7.974733      -217.0035
  25   1.0000      -7.974647      -217.0012
  26   1.0000      -7.973501      -216.9700
  27   1.0000      -7.972688      -216.9479
  28   1.0000      -7.972598      -216.9454
  29   1.0000      -4.147640      -112.8630
  30   1.0000      -2.669279       -72.6348
  31   1.0000      -2.669224       -72.6333
  32   1.0000      -2.668649       -72.6176
  33   1.0000      -1.432706       -38.9859
  34   1.0000      -1.144270       -31.1372
  35   1.0000      -1.090112       -29.6635
  36   1.0000      -1.045244       -28.4425
  37   1.0000      -1.033026       -28.1101
  38   1.0000      -1.029497       -28.0141
  39   1.0000      -1.027926       -27.9713
  40   1.0000      -1.002136       -27.2695
  41   1.0000      -0.973041       -26.4778
  42   1.0000      -0.907577       -24.6964
  43   1.0000      -0.818517       -22.2730
  44   1.0000      -0.744925       -20.2704
  45   1.0000      -0.702210       -19.1081
  46   1.0000      -0.689460       -18.7612
  47   1.0000      -0.681661       -18.5489
  48   1.0000      -0.666204       -18.1283
  49   1.0000      -0.633399       -17.2357
  50   1.0000      -0.621770       -16.9192
  51   1.0000      -0.604994       -16.4627
  52   1.0000      -0.595973       -16.2172
  53   1.0000      -0.582558       -15.8522
  54   1.0000      -0.574126       -15.6228
  55   1.0000      -0.563517       -15.3341
  56   1.0000      -0.560146       -15.2424
  57   1.0000      -0.551855       -15.0168
  58   1.0000      -0.542028       -14.7493
  59   1.0000      -0.535169       -14.5627
  60   1.0000      -0.517686       -14.0869
  61   1.0000      -0.507094       -13.7987
  62   1.0000      -0.494156       -13.4467
  63   1.0000      -0.478922       -13.0321
  64   1.0000      -0.476067       -12.9545
  65   1.0000      -0.448848       -12.2138
  66   1.0000      -0.445032       -12.1099
  67   1.0000      -0.442468       -12.0402
  68   1.0000      -0.427162       -11.6237
  69   1.0000      -0.422688       -11.5019
  70   1.0000      -0.408233       -11.1086
  71   1.0000      -0.368471       -10.0266
  72   0.0000       0.011619         0.3162
  73   0.0000       0.021883         0.5955
  74   0.0000       0.023281         0.6335
  75   0.0000       0.029346         0.7985
  76   0.0000       0.037669         1.0250

E(0)                                       ...  -3028.446427462
E(0)                                       ...  -3028.446427462
E(CORR)(strong-pairs)                      ...     -2.871692021
E(CORR)(weak-pairs)                        ...     -0.035978459
E(CORR)(corrected)                         ...     -2.907670479
E(TOT)                                     ...  -3031.354097942
E(CCSD(T))                                 ...  -3031.473410843
FINAL SINGLE POINT ENERGY     -3031.473410843460

DIPOLE MOMENT
-------------
                                X             Y             Z
Electronic contribution:     43.10198       5.43445       0.89248
Nuclear contribution   :    -47.01894      -6.52277      -1.41768
                        -----------------------------------------
Total Dipole Moment    :     -3.91696      -1.08832      -0.52519
                        -----------------------------------------
Magnitude (a.u.)       :      4.09913
Magnitude (Debye)      :     10.41915

Rotational constants in cm-1:     0.019146     0.010751     0.010128
Rotational constants in MHz :   573.980363   322.304075   303.621231

                             ****ORCA TERMINATED NORMALLY****
TOTAL RUN TIME: 0 days 18 hours 27 minutes 27 seconds 847 msec
