                         Program Version 4.1.2  - RELEASE  -
|  1> ! aug-cc-pVTZ aug-cc-pVTZ/C DLPNO-CCSD(T1) TightSCF NormalPNO UNO MiniPrint AutoAux
|  2> %pal nproc 10 end
|  3> %maxcore 20000
|  4> %mdci
|  5>      density none
|  6> end
|  7>
|  8> * xyz 0 6
|  9>  O      0.20516700      0.37100500     -0.86671000
| 10>  C      0.98888300      1.33047900     -0.67101500
| 11>  C      3.07289500      0.10791700      0.53407600
| 12>  C      2.63712900     -0.94822000     -0.18282500
| 13>  C      3.09701200     -1.18356900     -1.59574600
| 14> Fe     -1.47794500     -0.15996600      0.01468800
| 15> Cl     -2.06756900     -1.99128500     -0.99827200
| 16>  C      1.70780200     -2.00100400      0.34544100
| 17> Cl     -2.71280800      1.59990100     -0.39457900
| 18> Cl     -1.08492900     -0.40499600      2.16050100
| 19>  H      3.79743200      0.76872500      0.05716800
| 20>  H      2.22838800     -2.96730000      0.38702600
| 21>  H      1.31608800     -1.78394500      1.33868300
| 22>  H      0.85975400     -2.14154200     -0.33661300
| 23>  H      3.60048200     -2.15641900     -1.66824900
| 24>  H      2.24094400     -1.22911100     -2.28217900
| 25>  H      3.79575800     -0.41734200     -1.94344000
| 26>  C      2.86165800      0.33997100      2.00685300
| 27>  H      3.66852000     -0.13425000      2.58218800
| 28>  H      2.88868900      1.40606300      2.25321800
| 29>  H      1.91570600     -0.06667000      2.37298000
| 30>  C      0.82436000      2.22995000      0.51338900
| 31>  H      1.71170900      2.83732100      0.69468200
| 32>  H     -0.01454000      2.89940600      0.27032300
| 33>  H      0.54538500      1.67469900      1.40914400
| 34>  C      1.80971800      1.81585100     -1.82712300
| 35>  H      1.22015600      2.61407400     -2.30211600
| 36>  H      2.75823600      2.24940900     -1.50743200
| 37>  H      1.96597900      1.02816600     -2.56194300
| 38> *
| 39>
| 40>
| 41>                          ****END OF INPUT****

CARTESIAN COORDINATES (ANGSTROEM)
---------------------------------
  O      0.205167    0.371005   -0.866710
  C      0.988883    1.330479   -0.671015
  C      3.072895    0.107917    0.534076
  C      2.637129   -0.948220   -0.182825
  C      3.097012   -1.183569   -1.595746
  Fe    -1.477945   -0.159966    0.014688
  Cl    -2.067569   -1.991285   -0.998272
  C      1.707802   -2.001004    0.345441
  Cl    -2.712808    1.599901   -0.394579
  Cl    -1.084929   -0.404996    2.160501
  H      3.797432    0.768725    0.057168
  H      2.228388   -2.967300    0.387026
  H      1.316088   -1.783945    1.338683
  H      0.859754   -2.141542   -0.336613
  H      3.600482   -2.156419   -1.668249
  H      2.240944   -1.229111   -2.282179
  H      3.795758   -0.417342   -1.943440
  C      2.861658    0.339971    2.006853
  H      3.668520   -0.134250    2.582188
  H      2.888689    1.406063    2.253218
  H      1.915706   -0.066670    2.372980
  C      0.824360    2.229950    0.513389
  H      1.711709    2.837321    0.694682
  H     -0.014540    2.899406    0.270323
  H      0.545385    1.674699    1.409144
  C      1.809718    1.815851   -1.827123
  H      1.220156    2.614074   -2.302116
  H      2.758236    2.249409   -1.507432
  H      1.965979    1.028166   -2.561943

ORBITAL ENERGIES
----------------
                 SPIN UP ORBITALS
  NO   OCC          E(Eh)            E(eV)
   0   1.0000    -261.576611     -7117.8615
   1   1.0000    -104.794440     -2851.6017
   2   1.0000    -104.791239     -2851.5146
   3   1.0000    -104.789269     -2851.4610
   4   1.0000     -32.244304      -877.4121
   5   1.0000     -27.720799      -754.3213
   6   1.0000     -27.719638      -754.2897
   7   1.0000     -27.719443      -754.2844
   8   1.0000     -20.621812      -561.1480
   9   1.0000     -11.421923      -310.8063
  10   1.0000     -11.278176      -306.8948
  11   1.0000     -11.272543      -306.7415
  12   1.0000     -11.265319      -306.5449
  13   1.0000     -11.242912      -305.9352
  14   1.0000     -11.242082      -305.9126
  15   1.0000     -11.236262      -305.7542
  16   1.0000     -11.228449      -305.5416
  17   1.0000     -10.521161      -286.2954
  18   1.0000     -10.517933      -286.2075
  19   1.0000     -10.515913      -286.1526
  20   1.0000      -7.987990      -217.3643
  21   1.0000      -7.987242      -217.3439
  22   1.0000      -7.987189      -217.3425
  23   1.0000      -7.984815      -217.2779
  24   1.0000      -7.984028      -217.2565
  25   1.0000      -7.983974      -217.2550
  26   1.0000      -7.982699      -217.2203
  27   1.0000      -7.982043      -217.2024
  28   1.0000      -7.981997      -217.2012
  29   1.0000      -4.599136      -125.1489
  30   1.0000      -3.212282       -87.4106
  31   1.0000      -3.210521       -87.3627
  32   1.0000      -3.210379       -87.3589
  33   1.0000      -1.465873       -39.8884
  34   1.0000      -1.124864       -30.6091
  35   1.0000      -1.101600       -29.9761
  36   1.0000      -1.067627       -29.0516
  37   1.0000      -1.061821       -28.8936
  38   1.0000      -1.058943       -28.8153
  39   1.0000      -1.021577       -27.7985
  40   1.0000      -1.009366       -27.4662
  41   1.0000      -0.957423       -26.0528
  42   1.0000      -0.943334       -25.6694
  43   1.0000      -0.928024       -25.2528
  44   1.0000      -0.927901       -25.2495
  45   1.0000      -0.917164       -24.9573
  46   1.0000      -0.916519       -24.9397
  47   1.0000      -0.895212       -24.3600
  48   1.0000      -0.814819       -22.1724
  49   1.0000      -0.728172       -19.8146
  50   1.0000      -0.713338       -19.4109
  51   1.0000      -0.703339       -19.1388
  52   1.0000      -0.684880       -18.6365
  53   1.0000      -0.653955       -17.7950
  54   1.0000      -0.621524       -16.9125
  55   1.0000      -0.620131       -16.8746
  56   1.0000      -0.604422       -16.4472
  57   1.0000      -0.599663       -16.3177
  58   1.0000      -0.586112       -15.9489
  59   1.0000      -0.579195       -15.7607
  60   1.0000      -0.560903       -15.2630
  61   1.0000      -0.550549       -14.9812
  62   1.0000      -0.547223       -14.8907
  63   1.0000      -0.539425       -14.6785
  64   1.0000      -0.536899       -14.6098
  65   1.0000      -0.525194       -14.2913
  66   1.0000      -0.504317       -13.7232
  67   1.0000      -0.491861       -13.3842
  68   1.0000      -0.477373       -12.9900
  69   1.0000      -0.477033       -12.9807
  70   1.0000      -0.447409       -12.1746
  71   1.0000      -0.441184       -12.0052
  72   1.0000      -0.439343       -11.9551
  73   1.0000      -0.430729       -11.7207
  74   1.0000      -0.429763       -11.6944
  75   1.0000      -0.428481       -11.6595
  76   1.0000      -0.358590        -9.7577
  77   0.0000       0.012681         0.3451
  78   0.0000       0.023705         0.6450
  79   0.0000       0.024398         0.6639
  80   0.0000       0.030697         0.8353
  81   0.0000       0.039369         1.0713

                 SPIN DOWN ORBITALS
  NO   OCC          E(Eh)            E(eV)
   0   1.0000    -261.573029     -7117.7640
   1   1.0000    -104.792951     -2851.5612
   2   1.0000    -104.789681     -2851.4722
   3   1.0000    -104.787701     -2851.4183
   4   1.0000     -32.082319      -873.0043
   5   1.0000     -27.560250      -749.9525
   6   1.0000     -27.560154      -749.9499
   7   1.0000     -27.560059      -749.9473
   8   1.0000     -20.618354      -561.0539
   9   1.0000     -11.421849      -310.8043
  10   1.0000     -11.278069      -306.8919
  11   1.0000     -11.272536      -306.7413
  12   1.0000     -11.265352      -306.5458
  13   1.0000     -11.242853      -305.9336
  14   1.0000     -11.242078      -305.9125
  15   1.0000     -11.236267      -305.7544
  16   1.0000     -11.228459      -305.5419
  17   1.0000     -10.519571      -286.2521
  18   1.0000     -10.516270      -286.1622
  19   1.0000     -10.514249      -286.1073
  20   1.0000      -7.985494      -217.2963
  21   1.0000      -7.984747      -217.2760
  22   1.0000      -7.984709      -217.2750
  23   1.0000      -7.982146      -217.2052
  24   1.0000      -7.981464      -217.1867
  25   1.0000      -7.981372      -217.1842
  26   1.0000      -7.980242      -217.1534
  27   1.0000      -7.979338      -217.1288
  28   1.0000      -7.979256      -217.1266
  29   1.0000      -4.157068      -113.1196
  30   1.0000      -2.678609       -72.8887
  31   1.0000      -2.678585       -72.8880
  32   1.0000      -2.678132       -72.8757
  33   1.0000      -1.457417       -39.6583
  34   1.0000      -1.124560       -30.6008
  35   1.0000      -1.099315       -29.9139
  36   1.0000      -1.051955       -28.6251
  37   1.0000      -1.039380       -28.2830
  38   1.0000      -1.036157       -28.1953
  39   1.0000      -1.020773       -27.7767
  40   1.0000      -1.008962       -27.4553
  41   1.0000      -0.957303       -26.0495
  42   1.0000      -0.895327       -24.3631
  43   1.0000      -0.827503       -22.5175
  44   1.0000      -0.728242       -19.8165
  45   1.0000      -0.715213       -19.4619
  46   1.0000      -0.702519       -19.1165
  47   1.0000      -0.684270       -18.6199
  48   1.0000      -0.653896       -17.7934
  49   1.0000      -0.621020       -16.8988
  50   1.0000      -0.620016       -16.8715
  51   1.0000      -0.604205       -16.4412
  52   1.0000      -0.599574       -16.3152
  53   1.0000      -0.585844       -15.9416
  54   1.0000      -0.577829       -15.7235
  55   1.0000      -0.560051       -15.2398
  56   1.0000      -0.550298       -14.9744
  57   1.0000      -0.545415       -14.8415
  58   1.0000      -0.539341       -14.6762
  59   1.0000      -0.527028       -14.3412
  60   1.0000      -0.523554       -14.2466
  61   1.0000      -0.506118       -13.7722
  62   1.0000      -0.491662       -13.3788
  63   1.0000      -0.485879       -13.2214
  64   1.0000      -0.483379       -13.1534
  65   1.0000      -0.454573       -12.3696
  66   1.0000      -0.451443       -12.2844
  67   1.0000      -0.448456       -12.2031
  68   1.0000      -0.432069       -11.7572
  69   1.0000      -0.429835       -11.6964
  70   1.0000      -0.413891       -11.2625
  71   1.0000      -0.358073        -9.7437
  72   0.0000       0.012665         0.3446
  73   0.0000       0.023682         0.6444
  74   0.0000       0.024360         0.6629
  75   0.0000       0.030633         0.8336
  76   0.0000       0.039272         1.0686

E(0)                                       ...  -3028.466863632
E(0)                                       ...  -3028.466863632
E(CORR)(strong-pairs)                      ...     -2.867073287
E(CORR)(weak-pairs)                        ...     -0.035528466
E(CORR)(corrected)                         ...     -2.902601753
E(TOT)                                     ...  -3031.369465384
E(CCSD(T))                                 ...  -3031.487375945
FINAL SINGLE POINT ENERGY     -3031.487375944730

DIPOLE MOMENT
-------------
                                X             Y             Z
Electronic contribution:    -43.50906      -4.64847       1.68384
Nuclear contribution   :     46.77723       6.10734      -2.31697
                        -----------------------------------------
Total Dipole Moment    :      3.26817       1.45887      -0.63312
                        -----------------------------------------
Magnitude (a.u.)       :      3.63457
Magnitude (Debye)      :      9.23834

Rotational constants in cm-1:     0.018813     0.010739     0.010112
Rotational constants in MHz :   563.985595   321.936648   303.162546

                             ****ORCA TERMINATED NORMALLY****
TOTAL RUN TIME: 0 days 17 hours 42 minutes 6 seconds 713 msec
