                         Program Version 4.1.2  - RELEASE  -
|  1> ! aug-cc-pVTZ aug-cc-pVTZ/C DLPNO-CCSD(T1) TightSCF NormalPNO UNO MiniPrint AutoAux
|  2> %pal nproc 10 end
|  3> %maxcore 20000
|  4> %mdci
|  5>      density none
|  6> end
|  7>
|  8> * xyz 0 6
|  9>  O      0.23609300      0.38136800     -0.82618300
| 10>  C      0.96150200      1.38014800     -0.62859900
| 11>  C      3.19934500     -0.01732100      0.44919500
| 12>  C      2.56672400     -0.96670800     -0.26645100
| 13>  C      2.86632800     -1.17661100     -1.72695400
| 14> Fe     -1.46775500     -0.15703800      0.03654700
| 15> Cl     -2.09208700     -1.94313600     -1.03109200
| 16>  C      1.62519300     -1.98080300      0.31773300
| 17> Cl     -2.66089700      1.63743100     -0.35428800
| 18> Cl     -1.11365000     -0.44103800      2.18097000
| 19>  H      3.92898600      0.60128500     -0.07533900
| 20>  H      2.12765500     -2.95682600      0.36615600
| 21>  H      1.27797100     -1.73467500      1.32102100
| 22>  H      0.75096500     -2.12295000     -0.32740800
| 23>  H      3.27305400     -2.18400700     -1.88590200
| 24>  H      1.94847600     -1.11713300     -2.32577400
| 25>  H      3.59436800     -0.45668600     -2.11273400
| 26>  C      3.11961900      0.20506600      1.93432200
| 27>  H      3.97970200     -0.25645600      2.43882400
| 28>  H      3.15157000      1.27242500      2.18147000
| 29>  H      2.21460700     -0.21635200      2.37955000
| 30>  C      0.84764400      2.18954100      0.62299900
| 31>  H      1.72827900      2.81212500      0.78683900
| 32>  H     -0.02624900      2.84553800      0.49419100
| 33>  H      0.65341200      1.55690100      1.49006600
| 34>  C      1.75273300      1.93173300     -1.77231900
| 35>  H      1.18593700      2.79370900     -2.15447000
| 36>  H      2.72876300      2.29792600     -1.44850200
| 37>  H      1.85361900      1.20157800     -2.57334000
| 38> *
| 39>
| 40>
| 41>                          ****END OF INPUT****

CARTESIAN COORDINATES (ANGSTROEM)
---------------------------------
  O      0.236093    0.381368   -0.826183
  C      0.961502    1.380148   -0.628599
  C      3.199345   -0.017321    0.449195
  C      2.566724   -0.966708   -0.266451
  C      2.866328   -1.176611   -1.726954
  Fe    -1.467755   -0.157038    0.036547
  Cl    -2.092087   -1.943136   -1.031092
  C      1.625193   -1.980803    0.317733
  Cl    -2.660897    1.637431   -0.354288
  Cl    -1.113650   -0.441038    2.180970
  H      3.928986    0.601285   -0.075339
  H      2.127655   -2.956826    0.366156
  H      1.277971   -1.734675    1.321021
  H      0.750965   -2.122950   -0.327408
  H      3.273054   -2.184007   -1.885902
  H      1.948476   -1.117133   -2.325774
  H      3.594368   -0.456686   -2.112734
  C      3.119619    0.205066    1.934322
  H      3.979702   -0.256456    2.438824
  H      3.151570    1.272425    2.181470
  H      2.214607   -0.216352    2.379550
  C      0.847644    2.189541    0.622999
  H      1.728279    2.812125    0.786839
  H     -0.026249    2.845538    0.494191
  H      0.653412    1.556901    1.490066
  C      1.752733    1.931733   -1.772319
  H      1.185937    2.793709   -2.154470
  H      2.728763    2.297926   -1.448502
  H      1.853619    1.201578   -2.573340

ORBITAL ENERGIES
----------------
                 SPIN UP ORBITALS
  NO   OCC          E(Eh)            E(eV)
   0   1.0000    -261.579088     -7117.9288
   1   1.0000    -104.795516     -2851.6310
   2   1.0000    -104.792791     -2851.5568
   3   1.0000    -104.791119     -2851.5113
   4   1.0000     -32.246725      -877.4780
   5   1.0000     -27.723267      -754.3885
   6   1.0000     -27.722032      -754.3548
   7   1.0000     -27.721849      -754.3499
   8   1.0000     -20.625356      -561.2445
   9   1.0000     -11.422691      -310.8272
  10   1.0000     -11.279595      -306.9334
  11   1.0000     -11.273607      -306.7704
  12   1.0000     -11.259387      -306.3835
  13   1.0000     -11.239057      -305.8303
  14   1.0000     -11.237773      -305.7953
  15   1.0000     -11.236093      -305.7496
  16   1.0000     -11.226115      -305.4781
  17   1.0000     -10.522245      -286.3248
  18   1.0000     -10.519496      -286.2500
  19   1.0000     -10.517768      -286.2030
  20   1.0000      -7.989066      -217.3935
  21   1.0000      -7.988336      -217.3737
  22   1.0000      -7.988275      -217.3720
  23   1.0000      -7.986399      -217.3210
  24   1.0000      -7.985583      -217.2988
  25   1.0000      -7.985525      -217.2972
  26   1.0000      -7.984547      -217.2706
  27   1.0000      -7.983895      -217.2528
  28   1.0000      -7.983856      -217.2518
  29   1.0000      -4.601472      -125.2124
  30   1.0000      -3.214636       -87.4747
  31   1.0000      -3.212802       -87.4248
  32   1.0000      -3.212704       -87.4221
  33   1.0000      -1.470755       -40.0213
  34   1.0000      -1.120091       -30.4792
  35   1.0000      -1.103944       -30.0399
  36   1.0000      -1.069131       -29.0925
  37   1.0000      -1.063406       -28.9367
  38   1.0000      -1.060939       -28.8696
  39   1.0000      -1.020850       -27.7787
  40   1.0000      -1.009311       -27.4648
  41   1.0000      -0.954427       -25.9713
  42   1.0000      -0.944915       -25.7124
  43   1.0000      -0.930321       -25.3153
  44   1.0000      -0.930185       -25.3116
  45   1.0000      -0.919203       -25.0128
  46   1.0000      -0.918641       -24.9975
  47   1.0000      -0.892124       -24.2759
  48   1.0000      -0.816966       -22.2308
  49   1.0000      -0.724485       -19.7142
  50   1.0000      -0.715876       -19.4800
  51   1.0000      -0.706325       -19.2201
  52   1.0000      -0.686475       -18.6799
  53   1.0000      -0.650532       -17.7019
  54   1.0000      -0.622189       -16.9306
  55   1.0000      -0.617177       -16.7942
  56   1.0000      -0.603161       -16.4129
  57   1.0000      -0.600139       -16.3306
  58   1.0000      -0.586575       -15.9615
  59   1.0000      -0.579945       -15.7811
  60   1.0000      -0.560983       -15.2651
  61   1.0000      -0.549556       -14.9542
  62   1.0000      -0.548215       -14.9177
  63   1.0000      -0.536835       -14.6080
  64   1.0000      -0.535722       -14.5777
  65   1.0000      -0.523162       -14.2360
  66   1.0000      -0.506127       -13.7724
  67   1.0000      -0.488823       -13.3016
  68   1.0000      -0.478751       -13.0275
  69   1.0000      -0.478263       -13.0142
  70   1.0000      -0.448959       -12.2168
  71   1.0000      -0.442495       -12.0409
  72   1.0000      -0.440789       -11.9945
  73   1.0000      -0.432231       -11.7616
  74   1.0000      -0.431015       -11.7285
  75   1.0000      -0.430015       -11.7013
  76   1.0000      -0.355171        -9.6647
  77   0.0000       0.012862         0.3500
  78   0.0000       0.023934         0.6513
  79   0.0000       0.024857         0.6764
  80   0.0000       0.030834         0.8390
  81   0.0000       0.039575         1.0769

                 SPIN DOWN ORBITALS
  NO   OCC          E(Eh)            E(eV)
   0   1.0000    -261.575504     -7117.8313
   1   1.0000    -104.794010     -2851.5900
   2   1.0000    -104.791230     -2851.5143
   3   1.0000    -104.789544     -2851.4685
   4   1.0000     -32.084762      -873.0708
   5   1.0000     -27.562720      -750.0197
   6   1.0000     -27.562580      -750.0159
   7   1.0000     -27.562506      -750.0139
   8   1.0000     -20.622065      -561.1549
   9   1.0000     -11.422604      -310.8249
  10   1.0000     -11.279495      -306.9307
  11   1.0000     -11.273605      -306.7704
  12   1.0000     -11.259452      -306.3853
  13   1.0000     -11.238967      -305.8278
  14   1.0000     -11.237763      -305.7951
  15   1.0000     -11.236102      -305.7499
  16   1.0000     -11.226121      -305.4783
  17   1.0000     -10.520639      -286.2811
  18   1.0000     -10.517829      -286.2047
  19   1.0000     -10.516096      -286.1575
  20   1.0000      -7.986570      -217.3256
  21   1.0000      -7.985795      -217.3045
  22   1.0000      -7.985754      -217.3034
  23   1.0000      -7.983682      -217.2470
  24   1.0000      -7.983036      -217.2295
  25   1.0000      -7.982938      -217.2268
  26   1.0000      -7.982095      -217.2038
  27   1.0000      -7.981168      -217.1786
  28   1.0000      -7.981090      -217.1765
  29   1.0000      -4.159451      -113.1844
  30   1.0000      -2.680999       -72.9537
  31   1.0000      -2.680915       -72.9514
  32   1.0000      -2.680531       -72.9410
  33   1.0000      -1.462716       -39.8025
  34   1.0000      -1.119803       -30.4714
  35   1.0000      -1.101794       -29.9813
  36   1.0000      -1.053379       -28.6639
  37   1.0000      -1.040760       -28.3205
  38   1.0000      -1.037999       -28.2454
  39   1.0000      -1.019910       -27.7531
  40   1.0000      -1.009057       -27.4578
  41   1.0000      -0.954201       -25.9651
  42   1.0000      -0.892219       -24.2785
  43   1.0000      -0.828853       -22.5542
  44   1.0000      -0.724582       -19.7169
  45   1.0000      -0.717464       -19.5232
  46   1.0000      -0.705582       -19.1999
  47   1.0000      -0.685925       -18.6650
  48   1.0000      -0.650487       -17.7006
  49   1.0000      -0.621631       -16.9154
  50   1.0000      -0.617089       -16.7918
  51   1.0000      -0.603014       -16.4089
  52   1.0000      -0.600060       -16.3285
  53   1.0000      -0.586318       -15.9545
  54   1.0000      -0.578818       -15.7504
  55   1.0000      -0.559912       -15.2360
  56   1.0000      -0.548541       -14.9266
  57   1.0000      -0.546615       -14.8741
  58   1.0000      -0.536299       -14.5934
  59   1.0000      -0.526381       -14.3236
  60   1.0000      -0.522488       -14.2176
  61   1.0000      -0.507589       -13.8122
  62   1.0000      -0.488718       -13.2987
  63   1.0000      -0.487029       -13.2527
  64   1.0000      -0.485097       -13.2002
  65   1.0000      -0.455766       -12.4020
  66   1.0000      -0.452929       -12.3248
  67   1.0000      -0.449831       -12.2405
  68   1.0000      -0.433150       -11.7866
  69   1.0000      -0.431553       -11.7431
  70   1.0000      -0.415140       -11.2965
  71   1.0000      -0.354736        -9.6529
  72   0.0000       0.012846         0.3496
  73   0.0000       0.023910         0.6506
  74   0.0000       0.024815         0.6753
  75   0.0000       0.030776         0.8375
  76   0.0000       0.039482         1.0744

E(0)                                       ...  -3028.468913710
E(0)                                       ...  -3028.468913710
E(CORR)(strong-pairs)                      ...     -2.866644445
E(CORR)(weak-pairs)                        ...     -0.035028523
E(CORR)(corrected)                         ...     -2.901672968
E(TOT)                                     ...  -3031.370586679
E(CCSD(T))                                 ...  -3031.488331479
FINAL SINGLE POINT ENERGY     -3031.488331479057

DIPOLE MOMENT
-------------
                                X             Y             Z
Electronic contribution:    -43.49472      -4.25715       2.02962
Nuclear contribution   :     46.61905       5.79233      -2.63663
                        -----------------------------------------
Total Dipole Moment    :      3.12433       1.53518      -0.60700
                        -----------------------------------------
Magnitude (a.u.)       :      3.53365
Magnitude (Debye)      :      8.98183

Rotational constants in cm-1:     0.018712     0.010745     0.010129
Rotational constants in MHz :   560.979936   322.123352   303.651777

                             ****ORCA TERMINATED NORMALLY****
TOTAL RUN TIME: 0 days 17 hours 25 minutes 54 seconds 454 msec
