                         Program Version 4.1.2  - RELEASE  -
|  1> ! aug-cc-pVTZ aug-cc-pVTZ/C DLPNO-CCSD(T1) TightSCF NormalPNO UNO MiniPrint AutoAux
|  2> %pal nproc 10 end
|  3> %maxcore 20000
|  4> %mdci
|  5>      density none
|  6> end
|  7>
|  8> * xyz 0 6
|  9>  O      0.27497700      0.27274900     -0.75979000
| 10>  C      1.04200000      1.25562500     -0.62149200
| 11>  C      3.24450400     -0.03440800      0.25872600
| 12>  C      2.46956200     -1.02020300     -0.23817700
| 13>  C      2.56289100     -1.43939600     -1.67928600
| 14> Fe     -1.47449700     -0.12141400      0.05393400
| 15> Cl     -2.10554500     -1.96976600     -0.90474000
| 16>  C      1.57820500     -1.88853100      0.60285800
| 17> Cl     -2.56974700      1.68497800     -0.53127300
| 18> Cl     -1.24687300     -0.25326000      2.23080900
| 19>  H      3.92614200      0.46203200     -0.43216300
| 20>  H      2.10371600     -2.82626800      0.83107200
| 21>  H      1.28534000     -1.43463000      1.54997700
| 22>  H      0.67193100     -2.16977700      0.05720600
| 23>  H      2.86557000     -2.49305800     -1.73784600
| 24>  H      1.58384200     -1.37000400     -2.16867000
| 25>  H      3.29327700     -0.84995800     -2.24137900
| 26>  C      3.41071300      0.34266600      1.70476900
| 27>  H      4.31841900     -0.12112200      2.11481900
| 28>  H      3.53126400      1.42462100      1.82990800
| 29>  H      2.57277700      0.02071000      2.32843800
| 30>  C      0.97314100      2.11594600      0.59954900
| 31>  H      1.86700200      2.72799400      0.72304000
| 32>  H      0.11099800      2.78466500      0.45485800
| 33>  H      0.77767200      1.52515100      1.49519300
| 34>  C      1.75515400      1.77633300     -1.83068300
| 35>  H      1.08836800      2.53548300     -2.26700100
| 36>  H      2.69758700      2.26379100     -1.57724400
| 37>  H      1.90296500      0.99376100     -2.57330500
| 38> *
| 39>
| 40>
| 41>                          ****END OF INPUT****

CARTESIAN COORDINATES (ANGSTROEM)
---------------------------------
  O      0.274977    0.272749   -0.759790
  C      1.042000    1.255625   -0.621492
  C      3.244504   -0.034408    0.258726
  C      2.469562   -1.020203   -0.238177
  C      2.562891   -1.439396   -1.679286
  Fe    -1.474497   -0.121414    0.053934
  Cl    -2.105545   -1.969766   -0.904740
  C      1.578205   -1.888531    0.602858
  Cl    -2.569747    1.684978   -0.531273
  Cl    -1.246873   -0.253260    2.230809
  H      3.926142    0.462032   -0.432163
  H      2.103716   -2.826268    0.831072
  H      1.285340   -1.434630    1.549977
  H      0.671931   -2.169777    0.057206
  H      2.865570   -2.493058   -1.737846
  H      1.583842   -1.370004   -2.168670
  H      3.293277   -0.849958   -2.241379
  C      3.410713    0.342666    1.704769
  H      4.318419   -0.121122    2.114819
  H      3.531264    1.424621    1.829908
  H      2.572777    0.020710    2.328438
  C      0.973141    2.115946    0.599549
  H      1.867002    2.727994    0.723040
  H      0.110998    2.784665    0.454858
  H      0.777672    1.525151    1.495193
  C      1.755154    1.776333   -1.830683
  H      1.088368    2.535483   -2.267001
  H      2.697587    2.263791   -1.577244
  H      1.902965    0.993761   -2.573305

ORBITAL ENERGIES
----------------
                 SPIN UP ORBITALS
  NO   OCC          E(Eh)            E(eV)
   0   1.0000    -261.576921     -7117.8699
   1   1.0000    -104.793669     -2851.5807
   2   1.0000    -104.791445     -2851.5202
   3   1.0000    -104.790037     -2851.4819
   4   1.0000     -32.244583      -877.4197
   5   1.0000     -27.721091      -754.3292
   6   1.0000     -27.719913      -754.2972
   7   1.0000     -27.719744      -754.2926
   8   1.0000     -20.617909      -561.0418
   9   1.0000     -11.423176      -310.8404
  10   1.0000     -11.278410      -306.9011
  11   1.0000     -11.273093      -306.7565
  12   1.0000     -11.266103      -306.5662
  13   1.0000     -11.241750      -305.9036
  14   1.0000     -11.240625      -305.8730
  15   1.0000     -11.238564      -305.8169
  16   1.0000     -11.229939      -305.5822
  17   1.0000     -10.520375      -286.2740
  18   1.0000     -10.518121      -286.2126
  19   1.0000     -10.516658      -286.1728
  20   1.0000      -7.987203      -217.3428
  21   1.0000      -7.986462      -217.3227
  22   1.0000      -7.986408      -217.3212
  23   1.0000      -7.985021      -217.2835
  24   1.0000      -7.984211      -217.2614
  25   1.0000      -7.984139      -217.2595
  26   1.0000      -7.983442      -217.2405
  27   1.0000      -7.982783      -217.2226
  28   1.0000      -7.982737      -217.2213
  29   1.0000      -4.599433      -125.1569
  30   1.0000      -3.212608       -87.4195
  31   1.0000      -3.210803       -87.3704
  32   1.0000      -3.210680       -87.3670
  33   1.0000      -1.466506       -39.9057
  34   1.0000      -1.125225       -30.6189
  35   1.0000      -1.102717       -30.0065
  36   1.0000      -1.067224       -29.0407
  37   1.0000      -1.061649       -28.8889
  38   1.0000      -1.059358       -28.8266
  39   1.0000      -1.021578       -27.7985
  40   1.0000      -1.011510       -27.5246
  41   1.0000      -0.957958       -26.0674
  42   1.0000      -0.943550       -25.6753
  43   1.0000      -0.928392       -25.2628
  44   1.0000      -0.928244       -25.2588
  45   1.0000      -0.917274       -24.9603
  46   1.0000      -0.917017       -24.9533
  47   1.0000      -0.896145       -24.3853
  48   1.0000      -0.814481       -22.1631
  49   1.0000      -0.728432       -19.8217
  50   1.0000      -0.713362       -19.4116
  51   1.0000      -0.704766       -19.1777
  52   1.0000      -0.688954       -18.7474
  53   1.0000      -0.654043       -17.7974
  54   1.0000      -0.622271       -16.9329
  55   1.0000      -0.620717       -16.8906
  56   1.0000      -0.602649       -16.3989
  57   1.0000      -0.600731       -16.3467
  58   1.0000      -0.586031       -15.9467
  59   1.0000      -0.580331       -15.7916
  60   1.0000      -0.559703       -15.2303
  61   1.0000      -0.554321       -15.0838
  62   1.0000      -0.551730       -15.0133
  63   1.0000      -0.538105       -14.6426
  64   1.0000      -0.533862       -14.5271
  65   1.0000      -0.525830       -14.3086
  66   1.0000      -0.503619       -13.7042
  67   1.0000      -0.492445       -13.4001
  68   1.0000      -0.478060       -13.0087
  69   1.0000      -0.476217       -12.9585
  70   1.0000      -0.447456       -12.1759
  71   1.0000      -0.441009       -12.0005
  72   1.0000      -0.439557       -11.9609
  73   1.0000      -0.430980       -11.7276
  74   1.0000      -0.429444       -11.6858
  75   1.0000      -0.429006       -11.6739
  76   1.0000      -0.357424        -9.7260
  77   0.0000       0.012965         0.3528
  78   0.0000       0.023858         0.6492
  79   0.0000       0.024626         0.6701
  80   0.0000       0.030588         0.8323
  81   0.0000       0.039587         1.0772

                 SPIN DOWN ORBITALS
  NO   OCC          E(Eh)            E(eV)
   0   1.0000    -261.573344     -7117.7725
   1   1.0000    -104.792164     -2851.5398
   2   1.0000    -104.789900     -2851.4781
   3   1.0000    -104.788482     -2851.4396
   4   1.0000     -32.082614      -873.0123
   5   1.0000     -27.560563      -749.9611
   6   1.0000     -27.560446      -749.9579
   7   1.0000     -27.560336      -749.9549
   8   1.0000     -20.614525      -560.9497
   9   1.0000     -11.423041      -310.8367
  10   1.0000     -11.278311      -306.8984
  11   1.0000     -11.273092      -306.7564
  12   1.0000     -11.266194      -306.5687
  13   1.0000     -11.241625      -305.9002
  14   1.0000     -11.240623      -305.8729
  15   1.0000     -11.238549      -305.8165
  16   1.0000     -11.229943      -305.5823
  17   1.0000     -10.518768      -286.2302
  18   1.0000     -10.516470      -286.1677
  19   1.0000     -10.515007      -286.1279
  20   1.0000      -7.984693      -217.2746
  21   1.0000      -7.983935      -217.2539
  22   1.0000      -7.983888      -217.2527
  23   1.0000      -7.982327      -217.2102
  24   1.0000      -7.981692      -217.1929
  25   1.0000      -7.981589      -217.1901
  26   1.0000      -7.981002      -217.1741
  27   1.0000      -7.980101      -217.1496
  28   1.0000      -7.980022      -217.1474
  29   1.0000      -4.157360      -113.1275
  30   1.0000      -2.678909       -72.8968
  31   1.0000      -2.678840       -72.8949
  32   1.0000      -2.678470       -72.8849
  33   1.0000      -1.458121       -39.6775
  34   1.0000      -1.124922       -30.6107
  35   1.0000      -1.100446       -29.9447
  36   1.0000      -1.051571       -28.6147
  37   1.0000      -1.039025       -28.2733
  38   1.0000      -1.036774       -28.2121
  39   1.0000      -1.020838       -27.7784
  40   1.0000      -1.011063       -27.5124
  41   1.0000      -0.957751       -26.0617
  42   1.0000      -0.896306       -24.3897
  43   1.0000      -0.826945       -22.5023
  44   1.0000      -0.728496       -19.8234
  45   1.0000      -0.715388       -19.4667
  46   1.0000      -0.703950       -19.1554
  47   1.0000      -0.688312       -18.7299
  48   1.0000      -0.654006       -17.7964
  49   1.0000      -0.621703       -16.9174
  50   1.0000      -0.620694       -16.8900
  51   1.0000      -0.602459       -16.3937
  52   1.0000      -0.600719       -16.3464
  53   1.0000      -0.585734       -15.9386
  54   1.0000      -0.579505       -15.7691
  55   1.0000      -0.558603       -15.2004
  56   1.0000      -0.553380       -15.0582
  57   1.0000      -0.550445       -14.9784
  58   1.0000      -0.537994       -14.6396
  59   1.0000      -0.527302       -14.3486
  60   1.0000      -0.521959       -14.2032
  61   1.0000      -0.504588       -13.7305
  62   1.0000      -0.492224       -13.3941
  63   1.0000      -0.485579       -13.2133
  64   1.0000      -0.483795       -13.1647
  65   1.0000      -0.454465       -12.3666
  66   1.0000      -0.451359       -12.2821
  67   1.0000      -0.448512       -12.2046
  68   1.0000      -0.432117       -11.7585
  69   1.0000      -0.430194       -11.7062
  70   1.0000      -0.413967       -11.2646
  71   1.0000      -0.356781        -9.7085
  72   0.0000       0.012950         0.3524
  73   0.0000       0.023833         0.6485
  74   0.0000       0.024590         0.6691
  75   0.0000       0.030541         0.8311
  76   0.0000       0.039483         1.0744

E(0)                                       ...  -3028.460587703
E(0)                                       ...  -3028.460587703
E(CORR)(strong-pairs)                      ...     -2.867958694
E(CORR)(weak-pairs)                        ...     -0.035650992
E(CORR)(corrected)                         ...     -2.903609686
E(TOT)                                     ...  -3031.364197389
E(CCSD(T))                                 ...  -3031.482221723
FINAL SINGLE POINT ENERGY     -3031.482221723214

DIPOLE MOMENT
-------------
                                X             Y             Z
Electronic contribution:    -43.64081      -3.23323       2.24555
Nuclear contribution   :     46.93857       4.54014      -2.86025
                        -----------------------------------------
Total Dipole Moment    :      3.29775       1.30691      -0.61470
                        -----------------------------------------
Magnitude (a.u.)       :      3.60015
Magnitude (Debye)      :      9.15084

Rotational constants in cm-1:     0.019015     0.010776     0.010156
Rotational constants in MHz :   570.061648   323.058638   304.472218

                             ****ORCA TERMINATED NORMALLY****
TOTAL RUN TIME: 0 days 17 hours 59 minutes 8 seconds 781 msec
