                         Program Version 4.1.2  - RELEASE  -
|  1> ! aug-cc-pVTZ aug-cc-pVTZ/C DLPNO-CCSD(T1) TightSCF NormalPNO UNO MiniPrint AutoAux
|  2> %pal nproc 10 end
|  3> %maxcore 20000
|  4> %mdci
|  5>      density none
|  6> end
|  7>
|  8> * xyz 0 6
|  9>  O     -0.37177500     -0.23681000     -0.57428600
| 10>  C     -1.43170500     -1.19392500     -0.37403700
| 11>  C     -2.75948800     -0.14369000     -0.21912400
| 12>  C     -1.98623000      1.14715700     -0.25705500
| 13>  C     -1.87465900      1.90026200     -1.52495900
| 14> Fe      1.37737600      0.03247600      0.02433800
| 15> Cl      1.79312900      2.04217400     -0.82312200
| 16>  C     -1.58030900      1.82778800      0.99110600
| 17> Cl      2.57735000     -1.64823000     -0.71277000
| 18> Cl      1.32013100      0.14138100      2.24090300
| 19>  H     -3.34407800     -0.23417100     -1.13890900
| 20>  H     -2.45931800      2.39903600      1.33462800
| 21>  H     -1.30837200      1.13107400      1.78496200
| 22>  H     -0.76086000      2.52868700      0.81879800
| 23>  H     -2.63026700      2.70335400     -1.49152600
| 24>  H     -0.89079400      2.37355300     -1.60369900
| 25>  H     -2.07026500      1.27620900     -2.39772700
| 26>  C     -3.65685700     -0.36416200      0.99328700
| 27>  H     -4.45958600      0.38138300      1.03090600
| 28>  H     -4.12759400     -1.34922100      0.92507700
| 29>  H     -3.10815300     -0.32200600      1.93675100
| 30>  C     -1.19358200     -2.03450600      0.86627300
| 31>  H     -2.01689000     -2.73588100      1.03415600
| 32>  H     -0.27616000     -2.61598900      0.71865700
| 33>  H     -1.05128500     -1.42221100      1.75861700
| 34>  C     -1.56829400     -2.03976200     -1.62722500
| 35>  H     -0.64303500     -2.60763600     -1.77424600
| 36>  H     -2.40429800     -2.74309000     -1.54197700
| 37>  H     -1.72023100     -1.40848300     -2.50772900
| 38> *
| 39>
| 40>
| 41>                          ****END OF INPUT****

CARTESIAN COORDINATES (ANGSTROEM)
---------------------------------
  O     -0.371775   -0.236810   -0.574286
  C     -1.431705   -1.193925   -0.374037
  C     -2.759488   -0.143690   -0.219124
  C     -1.986230    1.147157   -0.257055
  C     -1.874659    1.900262   -1.524959
  Fe     1.377376    0.032476    0.024338
  Cl     1.793129    2.042174   -0.823122
  C     -1.580309    1.827788    0.991106
  Cl     2.577350   -1.648230   -0.712770
  Cl     1.320131    0.141381    2.240903
  H     -3.344078   -0.234171   -1.138909
  H     -2.459318    2.399036    1.334628
  H     -1.308372    1.131074    1.784962
  H     -0.760860    2.528687    0.818798
  H     -2.630267    2.703354   -1.491526
  H     -0.890794    2.373553   -1.603699
  H     -2.070265    1.276209   -2.397727
  C     -3.656857   -0.364162    0.993287
  H     -4.459586    0.381383    1.030906
  H     -4.127594   -1.349221    0.925077
  H     -3.108153   -0.322006    1.936751
  C     -1.193582   -2.034506    0.866273
  H     -2.016890   -2.735881    1.034156
  H     -0.276160   -2.615989    0.718657
  H     -1.051285   -1.422211    1.758617
  C     -1.568294   -2.039762   -1.627225
  H     -0.643035   -2.607636   -1.774246
  H     -2.404298   -2.743090   -1.541977
  H     -1.720231   -1.408483   -2.507729

ORBITAL ENERGIES
----------------
                 SPIN UP ORBITALS
  NO   OCC          E(Eh)            E(eV)
   0   1.0000    -261.545965     -7117.0275
   1   1.0000    -104.775224     -2851.0788
   2   1.0000    -104.773693     -2851.0371
   3   1.0000    -104.770495     -2850.9501
   4   1.0000     -32.213867      -876.5839
   5   1.0000     -27.689745      -753.4763
   6   1.0000     -27.689638      -753.4733
   7   1.0000     -27.689287      -753.4638
   8   1.0000     -20.550889      -559.2181
   9   1.0000     -11.410121      -310.4852
  10   1.0000     -11.339715      -308.5693
  11   1.0000     -11.294508      -307.3392
  12   1.0000     -11.282384      -307.0093
  13   1.0000     -11.280655      -306.9622
  14   1.0000     -11.265609      -306.5528
  15   1.0000     -11.236993      -305.7741
  16   1.0000     -11.234381      -305.7030
  17   1.0000     -10.501792      -285.7683
  18   1.0000     -10.500370      -285.7296
  19   1.0000     -10.497097      -285.6405
  20   1.0000      -7.968630      -216.8375
  21   1.0000      -7.967868      -216.8167
  22   1.0000      -7.967785      -216.8144
  23   1.0000      -7.967259      -216.8001
  24   1.0000      -7.966402      -216.7768
  25   1.0000      -7.966375      -216.7761
  26   1.0000      -7.963897      -216.7087
  27   1.0000      -7.963221      -216.6903
  28   1.0000      -7.963134      -216.6879
  29   1.0000      -4.569293      -124.3368
  30   1.0000      -3.181679       -86.5779
  31   1.0000      -3.181520       -86.5736
  32   1.0000      -3.180925       -86.5574
  33   1.0000      -1.350783       -36.7567
  34   1.0000      -1.177305       -32.0361
  35   1.0000      -1.090698       -29.6794
  36   1.0000      -1.046048       -28.4644
  37   1.0000      -1.040839       -28.3227
  38   1.0000      -1.037953       -28.2441
  39   1.0000      -1.037452       -28.2305
  40   1.0000      -1.017295       -27.6820
  41   1.0000      -0.964866       -26.2553
  42   1.0000      -0.932522       -25.3752
  43   1.0000      -0.902360       -24.5545
  44   1.0000      -0.898694       -24.4547
  45   1.0000      -0.898427       -24.4474
  46   1.0000      -0.890705       -24.2373
  47   1.0000      -0.890235       -24.2245
  48   1.0000      -0.798354       -21.7243
  49   1.0000      -0.759029       -20.6542
  50   1.0000      -0.701525       -19.0895
  51   1.0000      -0.688551       -18.7364
  52   1.0000      -0.671706       -18.2780
  53   1.0000      -0.636142       -17.3103
  54   1.0000      -0.633260       -17.2319
  55   1.0000      -0.623108       -16.9556
  56   1.0000      -0.603128       -16.4119
  57   1.0000      -0.597269       -16.2525
  58   1.0000      -0.594620       -16.1804
  59   1.0000      -0.582158       -15.8413
  60   1.0000      -0.576140       -15.6776
  61   1.0000      -0.558355       -15.1936
  62   1.0000      -0.546485       -14.8706
  63   1.0000      -0.538188       -14.6448
  64   1.0000      -0.528442       -14.3796
  65   1.0000      -0.519682       -14.1413
  66   1.0000      -0.504099       -13.7172
  67   1.0000      -0.473086       -12.8733
  68   1.0000      -0.464038       -12.6271
  69   1.0000      -0.449337       -12.2271
  70   1.0000      -0.435342       -11.8463
  71   1.0000      -0.426159       -11.5964
  72   1.0000      -0.421491       -11.4694
  73   1.0000      -0.415869       -11.3164
  74   1.0000      -0.412624       -11.2281
  75   1.0000      -0.412106       -11.2140
  76   1.0000      -0.410476       -11.1696
  77   0.0000       0.006083         0.1655
  78   0.0000       0.018742         0.5100
  79   0.0000       0.021376         0.5817
  80   0.0000       0.030384         0.8268
  81   0.0000       0.031801         0.8654

                 SPIN DOWN ORBITALS
  NO   OCC          E(Eh)            E(eV)
   0   1.0000    -261.542420     -7116.9311
   1   1.0000    -104.773927     -2851.0435
   2   1.0000    -104.772331     -2851.0001
   3   1.0000    -104.769047     -2850.9107
   4   1.0000     -32.051867      -872.1756
   5   1.0000     -27.529974      -749.1287
   6   1.0000     -27.529748      -749.1225
   7   1.0000     -27.529267      -749.1094
   8   1.0000     -20.544978      -559.0573
   9   1.0000     -11.410169      -310.4865
  10   1.0000     -11.339508      -308.5637
  11   1.0000     -11.294380      -307.3357
  12   1.0000     -11.282363      -307.0087
  13   1.0000     -11.280664      -306.9625
  14   1.0000     -11.265606      -306.5527
  15   1.0000     -11.236941      -305.7727
  16   1.0000     -11.234363      -305.7025
  17   1.0000     -10.500398      -285.7304
  18   1.0000     -10.498903      -285.6897
  19   1.0000     -10.495549      -285.5984
  20   1.0000      -7.966341      -216.7752
  21   1.0000      -7.965775      -216.7597
  22   1.0000      -7.965695      -216.7576
  23   1.0000      -7.964785      -216.7328
  24   1.0000      -7.964254      -216.7184
  25   1.0000      -7.964196      -216.7168
  26   1.0000      -7.961534      -216.6444
  27   1.0000      -7.960759      -216.6233
  28   1.0000      -7.960699      -216.6216
  29   1.0000      -4.127195      -112.3067
  30   1.0000      -2.649109       -72.0859
  31   1.0000      -2.649067       -72.0848
  32   1.0000      -2.648043       -72.0569
  33   1.0000      -1.335341       -36.3365
  34   1.0000      -1.175769       -31.9943
  35   1.0000      -1.088178       -29.6108
  36   1.0000      -1.035780       -28.1850
  37   1.0000      -1.031914       -28.0798
  38   1.0000      -1.022121       -27.8133
  39   1.0000      -1.018017       -27.7016
  40   1.0000      -1.015878       -27.6434
  41   1.0000      -0.964138       -26.2355
  42   1.0000      -0.928773       -25.2732
  43   1.0000      -0.801125       -21.7997
  44   1.0000      -0.763869       -20.7859
  45   1.0000      -0.701665       -19.0933
  46   1.0000      -0.688125       -18.7248
  47   1.0000      -0.672742       -18.3062
  48   1.0000      -0.637732       -17.3536
  49   1.0000      -0.633267       -17.2321
  50   1.0000      -0.621357       -16.9080
  51   1.0000      -0.603265       -16.4157
  52   1.0000      -0.596270       -16.2253
  53   1.0000      -0.594331       -16.1726
  54   1.0000      -0.581230       -15.8161
  55   1.0000      -0.575121       -15.6499
  56   1.0000      -0.557978       -15.1834
  57   1.0000      -0.543397       -14.7866
  58   1.0000      -0.537669       -14.6307
  59   1.0000      -0.526275       -14.3207
  60   1.0000      -0.514641       -14.0041
  61   1.0000      -0.500667       -13.6239
  62   1.0000      -0.470108       -12.7923
  63   1.0000      -0.465243       -12.6599
  64   1.0000      -0.458055       -12.4643
  65   1.0000      -0.439354       -11.9554
  66   1.0000      -0.436463       -11.8768
  67   1.0000      -0.432053       -11.7568
  68   1.0000      -0.431434       -11.7399
  69   1.0000      -0.411310       -11.1923
  70   1.0000      -0.403268       -10.9735
  71   1.0000      -0.398599       -10.8464
  72   0.0000       0.006049         0.1646
  73   0.0000       0.018543         0.5046
  74   0.0000       0.021357         0.5812
  75   0.0000       0.030258         0.8234
  76   0.0000       0.030904         0.8409

E(0)                                       ...  -3028.436091759
E(0)                                       ...  -3028.436091759
E(CORR)(strong-pairs)                      ...     -2.870660674
E(CORR)(weak-pairs)                        ...     -0.035323636
E(CORR)(corrected)                         ...     -2.905984310
E(TOT)                                     ...  -3031.342076068
E(CCSD(T))                                 ...  -3031.460228694
FINAL SINGLE POINT ENERGY     -3031.460228693792

DIPOLE MOMENT
-------------
                                X             Y             Z
Electronic contribution:     40.16023       4.01993       1.77698
Nuclear contribution   :    -44.98547      -3.41017      -2.14295
                        -----------------------------------------
Total Dipole Moment    :     -4.82525       0.60976      -0.36598
                        -----------------------------------------
Magnitude (a.u.)       :      4.87737
Magnitude (Debye)      :     12.39729

Rotational constants in cm-1:     0.018989     0.011964     0.010701
Rotational constants in MHz :   569.269311   358.674340   320.821770

                             ****ORCA TERMINATED NORMALLY****
TOTAL RUN TIME: 0 days 21 hours 3 minutes 27 seconds 64 msec
