                         Program Version 4.1.2  - RELEASE  -
|  1> ! aug-cc-pVTZ aug-cc-pVTZ/C DLPNO-CCSD(T1) TightSCF NormalPNO UNO MiniPrint AutoAux
|  2> %pal nproc 10 end
|  3> %maxcore 20000
|  4> %mdci
|  5>      density none
|  6> end
|  7>
|  8> * xyz 0 6
|  9>  O      0.19298000      0.36343100     -0.87134000
| 10>  C      1.00758300      1.30168400     -0.67621200
| 11>  C      3.00003300      0.18200800      0.56333400
| 12>  C      2.68321100     -0.92896500     -0.13758700
| 13>  C      3.22982800     -1.17423400     -1.51644000
| 14> Fe     -1.48523500     -0.16392900      0.00186200
| 15> Cl     -2.04592500     -2.01750400     -0.99042500
| 16>  C      1.76938700     -2.00491000      0.36796200
| 17> Cl     -2.74090900      1.57656700     -0.42438000
| 18> Cl     -1.09199500     -0.39364600      2.15085100
| 19>  H      3.71513700      0.86799500      0.10933400
| 20>  H      2.30127300     -2.96488700      0.40101000
| 21>  H      1.36081300     -1.80478000      1.35797700
| 22>  H      0.93041100     -2.14397100     -0.32707000
| 23>  H      3.79127100     -2.11742500     -1.53211300
| 24>  H      2.41575300     -1.28976000     -2.24481700
| 25>  H      3.90069400     -0.37830600     -1.85107300
| 26>  C      2.72872600      0.40986100      2.02875400
| 27>  H      3.50695300     -0.07812300      2.63092600
| 28>  H      2.75829200      1.47336200      2.28195300
| 29>  H      1.76490200      0.01197700      2.35473400
| 30>  C      0.81084400      2.25388000      0.46332900
| 31>  H      1.69683000      2.85995000      0.65470700
| 32>  H     -0.00849100      2.91996300      0.15359200
| 33>  H      0.48672200      1.74436200      1.37067400
| 34>  C      1.83366300      1.75462000     -1.84438400
| 35>  H      1.22738300      2.51220300     -2.36254300
| 36>  H      2.76773000      2.22706000     -1.53837500
| 37>  H      2.01704600      0.93933000     -2.54192700
| 38> *
| 39>
| 40>
| 41>                          ****END OF INPUT****

CARTESIAN COORDINATES (ANGSTROEM)
---------------------------------
  O      0.192980    0.363431   -0.871340
  C      1.007583    1.301684   -0.676212
  C      3.000033    0.182008    0.563334
  C      2.683211   -0.928965   -0.137587
  C      3.229828   -1.174234   -1.516440
  Fe    -1.485235   -0.163929    0.001862
  Cl    -2.045925   -2.017504   -0.990425
  C      1.769387   -2.004910    0.367962
  Cl    -2.740909    1.576567   -0.424380
  Cl    -1.091995   -0.393646    2.150851
  H      3.715137    0.867995    0.109334
  H      2.301273   -2.964887    0.401010
  H      1.360813   -1.804780    1.357977
  H      0.930411   -2.143971   -0.327070
  H      3.791271   -2.117425   -1.532113
  H      2.415753   -1.289760   -2.244817
  H      3.900694   -0.378306   -1.851073
  C      2.728726    0.409861    2.028754
  H      3.506953   -0.078123    2.630926
  H      2.758292    1.473362    2.281953
  H      1.764902    0.011977    2.354734
  C      0.810844    2.253880    0.463329
  H      1.696830    2.859950    0.654707
  H     -0.008491    2.919963    0.153592
  H      0.486722    1.744362    1.370674
  C      1.833663    1.754620   -1.844384
  H      1.227383    2.512203   -2.362543
  H      2.767730    2.227060   -1.538375
  H      2.017046    0.939330   -2.541927

ORBITAL ENERGIES
----------------
                 SPIN UP ORBITALS
  NO   OCC          E(Eh)            E(eV)
   0   1.0000    -261.574664     -7117.8085
   1   1.0000    -104.793424     -2851.5740
   2   1.0000    -104.789967     -2851.4800
   3   1.0000    -104.787828     -2851.4218
   4   1.0000     -32.242390      -877.3600
   5   1.0000     -27.718851      -754.2683
   6   1.0000     -27.717746      -754.2382
   7   1.0000     -27.717542      -754.2327
   8   1.0000     -20.618394      -561.0550
   9   1.0000     -11.421280      -310.7888
  10   1.0000     -11.277112      -306.8658
  11   1.0000     -11.271912      -306.7243
  12   1.0000     -11.270635      -306.6896
  13   1.0000     -11.245636      -306.0093
  14   1.0000     -11.245185      -305.9970
  15   1.0000     -11.236567      -305.7625
  16   1.0000     -11.230826      -305.6063
  17   1.0000     -10.520142      -286.2676
  18   1.0000     -10.516653      -286.1727
  19   1.0000     -10.514466      -286.1132
  20   1.0000      -7.986976      -217.3367
  21   1.0000      -7.986218      -217.3160
  22   1.0000      -7.986170      -217.3147
  23   1.0000      -7.983525      -217.2428
  24   1.0000      -7.982752      -217.2217
  25   1.0000      -7.982699      -217.2203
  26   1.0000      -7.981258      -217.1811
  27   1.0000      -7.980597      -217.1631
  28   1.0000      -7.980545      -217.1617
  29   1.0000      -4.597288      -125.0986
  30   1.0000      -3.210427       -87.3602
  31   1.0000      -3.208713       -87.3135
  32   1.0000      -3.208540       -87.3088
  33   1.0000      -1.461806       -39.7778
  34   1.0000      -1.128511       -30.7083
  35   1.0000      -1.099843       -29.9282
  36   1.0000      -1.066348       -29.0168
  37   1.0000      -1.060474       -28.8570
  38   1.0000      -1.057359       -28.7722
  39   1.0000      -1.022433       -27.8218
  40   1.0000      -1.008925       -27.4542
  41   1.0000      -0.960168       -26.1275
  42   1.0000      -0.941982       -25.6326
  43   1.0000      -0.926228       -25.2040
  44   1.0000      -0.926094       -25.2003
  45   1.0000      -0.915522       -24.9126
  46   1.0000      -0.914833       -24.8939
  47   1.0000      -0.897406       -24.4197
  48   1.0000      -0.813055       -22.1243
  49   1.0000      -0.731439       -19.9035
  50   1.0000      -0.710965       -19.3463
  51   1.0000      -0.700954       -19.0739
  52   1.0000      -0.683860       -18.6088
  53   1.0000      -0.656457       -17.8631
  54   1.0000      -0.622559       -16.9407
  55   1.0000      -0.621119       -16.9015
  56   1.0000      -0.605129       -16.4664
  57   1.0000      -0.599369       -16.3097
  58   1.0000      -0.585656       -15.9365
  59   1.0000      -0.578155       -15.7324
  60   1.0000      -0.560906       -15.2630
  61   1.0000      -0.552861       -15.0441
  62   1.0000      -0.546359       -14.8672
  63   1.0000      -0.541841       -14.7442
  64   1.0000      -0.536534       -14.5998
  65   1.0000      -0.526648       -14.3308
  66   1.0000      -0.502713       -13.6795
  67   1.0000      -0.494438       -13.4543
  68   1.0000      -0.476489       -12.9659
  69   1.0000      -0.475518       -12.9395
  70   1.0000      -0.446145       -12.1402
  71   1.0000      -0.440060       -11.9746
  72   1.0000      -0.438135       -11.9223
  73   1.0000      -0.429603       -11.6901
  74   1.0000      -0.428568       -11.6619
  75   1.0000      -0.427207       -11.6249
  76   1.0000      -0.360783        -9.8174
  77   0.0000       0.012526         0.3409
  78   0.0000       0.023428         0.6375
  79   0.0000       0.024119         0.6563
  80   0.0000       0.030538         0.8310
  81   0.0000       0.039195         1.0665

                 SPIN DOWN ORBITALS
  NO   OCC          E(Eh)            E(eV)
   0   1.0000    -261.571084     -7117.7110
   1   1.0000    -104.791942     -2851.5337
   2   1.0000    -104.788413     -2851.4377
   3   1.0000    -104.786269     -2851.3793
   4   1.0000     -32.080391      -872.9518
   5   1.0000     -27.558311      -749.8998
   6   1.0000     -27.558236      -749.8977
   7   1.0000     -27.558125      -749.8947
   8   1.0000     -20.614830      -560.9580
   9   1.0000     -11.421202      -310.7867
  10   1.0000     -11.277003      -306.8628
  11   1.0000     -11.271901      -306.7240
  12   1.0000     -11.270643      -306.6898
  13   1.0000     -11.245600      -306.0083
  14   1.0000     -11.245184      -305.9970
  15   1.0000     -11.236568      -305.7626
  16   1.0000     -11.230839      -305.6067
  17   1.0000     -10.518559      -286.2245
  18   1.0000     -10.514995      -286.1276
  19   1.0000     -10.512810      -286.0681
  20   1.0000      -7.984476      -217.2686
  21   1.0000      -7.983748      -217.2488
  22   1.0000      -7.983709      -217.2478
  23   1.0000      -7.980884      -217.1709
  24   1.0000      -7.980185      -217.1519
  25   1.0000      -7.980096      -217.1494
  26   1.0000      -7.978798      -217.1141
  27   1.0000      -7.977913      -217.0901
  28   1.0000      -7.977829      -217.0878
  29   1.0000      -4.155187      -113.0684
  30   1.0000      -2.676745       -72.8379
  31   1.0000      -2.676718       -72.8372
  32   1.0000      -2.676248       -72.8244
  33   1.0000      -1.453055       -39.5396
  34   1.0000      -1.128195       -30.6998
  35   1.0000      -1.097440       -29.8629
  36   1.0000      -1.050718       -28.5915
  37   1.0000      -1.038176       -28.2502
  38   1.0000      -1.034711       -28.1559
  39   1.0000      -1.021727       -27.8026
  40   1.0000      -1.008424       -27.4406
  41   1.0000      -0.960080       -26.1251
  42   1.0000      -0.897544       -24.4234
  43   1.0000      -0.826290       -22.4845
  44   1.0000      -0.731512       -19.9055
  45   1.0000      -0.713014       -19.4021
  46   1.0000      -0.700080       -19.0501
  47   1.0000      -0.683232       -18.5917
  48   1.0000      -0.656391       -17.8613
  49   1.0000      -0.622531       -16.9399
  50   1.0000      -0.620570       -16.8866
  51   1.0000      -0.604867       -16.4593
  52   1.0000      -0.599253       -16.3065
  53   1.0000      -0.585350       -15.9282
  54   1.0000      -0.576658       -15.6917
  55   1.0000      -0.560219       -15.2443
  56   1.0000      -0.552618       -15.0375
  57   1.0000      -0.544975       -14.8295
  58   1.0000      -0.541655       -14.7392
  59   1.0000      -0.527899       -14.3649
  60   1.0000      -0.523289       -14.2394
  61   1.0000      -0.504497       -13.7281
  62   1.0000      -0.494372       -13.4525
  63   1.0000      -0.484672       -13.1886
  64   1.0000      -0.481907       -13.1134
  65   1.0000      -0.453633       -12.3440
  66   1.0000      -0.450196       -12.2504
  67   1.0000      -0.447314       -12.1720
  68   1.0000      -0.431119       -11.7313
  69   1.0000      -0.428384       -11.6569
  70   1.0000      -0.412822       -11.2335
  71   1.0000      -0.360168        -9.8007
  72   0.0000       0.012510         0.3404
  73   0.0000       0.023405         0.6369
  74   0.0000       0.024082         0.6553
  75   0.0000       0.030456         0.8288
  76   0.0000       0.039077         1.0633

E(0)                                       ...  -3028.463440403
E(0)                                       ...  -3028.463440403
E(CORR)(strong-pairs)                      ...     -2.867648536
E(CORR)(weak-pairs)                        ...     -0.035781750
E(CORR)(corrected)                         ...     -2.903430286
E(TOT)                                     ...  -3031.366870688
E(CCSD(T))                                 ...  -3031.484978843
FINAL SINGLE POINT ENERGY     -3031.484978842635

DIPOLE MOMENT
-------------
                                X             Y             Z
Electronic contribution:    -43.56392      -4.96159       1.45155
Nuclear contribution   :     46.95171       6.36496      -2.07824
                        -----------------------------------------
Total Dipole Moment    :      3.38778       1.40337      -0.62670
                        -----------------------------------------
Magnitude (a.u.)       :      3.72012
Magnitude (Debye)      :      9.45579

Rotational constants in cm-1:     0.018895     0.010709     0.010075
Rotational constants in MHz :   566.451033   321.040363   302.048031

                             ****ORCA TERMINATED NORMALLY****
TOTAL RUN TIME: 0 days 17 hours 53 minutes 2 seconds 385 msec
