                         Program Version 4.1.2  - RELEASE  -
|  1> ! aug-cc-pVTZ aug-cc-pVTZ/C DLPNO-CCSD(T1) TightSCF NormalPNO UNO MiniPrint AutoAux
|  2> %pal nproc 10 end
|  3> %maxcore 20000
|  4> %mdci
|  5>      density none
|  6> end
|  7>
|  8> * xyz 0 6
|  9>  O     -0.33566800     -0.06393800     -0.40355900
| 10>  C     -1.29066400     -1.04201900     -0.25082000
| 11>  C     -2.47548300     -0.46534000      0.65673100
| 12>  C     -2.94028000      0.73475900     -0.02864400
| 13>  C     -4.11878900      0.68675800     -0.92817200
| 14> Fe      1.49000700      0.17100500     -0.07761600
| 15> Cl      1.76424000      2.25877500     -0.74189600
| 16>  C     -2.12765600      1.91269800      0.02125200
| 17> Cl      2.54758500     -1.36915200     -1.23977600
| 18> Cl      1.80034000     -0.03644400      2.10794800
| 19>  H     -3.25761100     -1.23088200      0.63200400
| 20>  H     -2.48089200      2.77283700     -0.54566900
| 21>  H     -1.73721700      2.17788700      1.00669000
| 22>  H     -1.18183800      1.43864700     -0.44630100
| 23>  H     -4.95412300      1.15079800     -0.37776500
| 24>  H     -3.97023600      1.29397500     -1.82759300
| 25>  H     -4.41674300     -0.32906500     -1.19206800
| 26>  C     -2.00109900     -0.21589000      2.10226800
| 27>  H     -2.71110400      0.42276000      2.63678200
| 28>  H     -1.93829900     -1.16348600      2.63961100
| 29>  H     -1.01307200      0.24795300      2.12756100
| 30>  C     -0.72648900     -2.27475300      0.48453200
| 31>  H     -1.51445600     -3.00551200      0.69418900
| 32>  H      0.01964800     -2.73682000     -0.16812700
| 33>  H     -0.22960700     -1.99579400      1.41422100
| 34>  C     -1.79799600     -1.46381900     -1.64131600
| 35>  H     -0.96795800     -1.93461200     -2.17442800
| 36>  H     -2.62408300     -2.18139800     -1.58029700
| 37>  H     -2.11331000     -0.60032500     -2.23399600
| 38> *
| 39>
| 40>
| 41>                          ****END OF INPUT****

CARTESIAN COORDINATES (ANGSTROEM)
---------------------------------
  O     -0.335668   -0.063938   -0.403559
  C     -1.290664   -1.042019   -0.250820
  C     -2.475483   -0.465340    0.656731
  C     -2.940280    0.734759   -0.028644
  C     -4.118789    0.686758   -0.928172
  Fe     1.490007    0.171005   -0.077616
  Cl     1.764240    2.258775   -0.741896
  C     -2.127656    1.912698    0.021252
  Cl     2.547585   -1.369152   -1.239776
  Cl     1.800340   -0.036444    2.107948
  H     -3.257611   -1.230882    0.632004
  H     -2.480892    2.772837   -0.545669
  H     -1.737217    2.177887    1.006690
  H     -1.181838    1.438647   -0.446301
  H     -4.954123    1.150798   -0.377765
  H     -3.970236    1.293975   -1.827593
  H     -4.416743   -0.329065   -1.192068
  C     -2.001099   -0.215890    2.102268
  H     -2.711104    0.422760    2.636782
  H     -1.938299   -1.163486    2.639611
  H     -1.013072    0.247953    2.127561
  C     -0.726489   -2.274753    0.484532
  H     -1.514456   -3.005512    0.694189
  H      0.019648   -2.736820   -0.168127
  H     -0.229607   -1.995794    1.414221
  C     -1.797996   -1.463819   -1.641316
  H     -0.967958   -1.934612   -2.174428
  H     -2.624083   -2.181398   -1.580297
  H     -2.113310   -0.600325   -2.233996

ORBITAL ENERGIES
----------------
                 SPIN UP ORBITALS
  NO   OCC          E(Eh)            E(eV)
   0   1.0000    -261.538601     -7116.8272
   1   1.0000    -104.766998     -2850.8550
   2   1.0000    -104.765967     -2850.8269
   3   1.0000    -104.764195     -2850.7787
   4   1.0000     -32.206537      -876.3844
   5   1.0000     -27.682404      -753.2765
   6   1.0000     -27.682259      -753.2726
   7   1.0000     -27.682003      -753.2656
   8   1.0000     -20.536506      -558.8267
   9   1.0000     -11.404250      -310.3254
  10   1.0000     -11.334935      -308.4393
  11   1.0000     -11.310263      -307.7679
  12   1.0000     -11.293422      -307.3096
  13   1.0000     -11.278170      -306.8946
  14   1.0000     -11.256284      -306.2990
  15   1.0000     -11.242851      -305.9335
  16   1.0000     -11.231055      -305.6125
  17   1.0000     -10.493598      -285.5453
  18   1.0000     -10.492539      -285.5165
  19   1.0000     -10.490801      -285.4692
  20   1.0000      -7.960474      -216.6155
  21   1.0000      -7.959649      -216.5931
  22   1.0000      -7.959589      -216.5914
  23   1.0000      -7.959378      -216.5857
  24   1.0000      -7.958637      -216.5655
  25   1.0000      -7.958541      -216.5629
  26   1.0000      -7.957626      -216.5380
  27   1.0000      -7.956902      -216.5183
  28   1.0000      -7.956828      -216.5163
  29   1.0000      -4.562012      -124.1387
  30   1.0000      -3.174485       -86.3821
  31   1.0000      -3.174189       -86.3741
  32   1.0000      -3.173639       -86.3591
  33   1.0000      -1.363622       -37.1060
  34   1.0000      -1.207442       -32.8562
  35   1.0000      -1.095825       -29.8189
  36   1.0000      -1.047326       -28.4992
  37   1.0000      -1.037928       -28.2435
  38   1.0000      -1.032745       -28.1024
  39   1.0000      -1.030896       -28.0521
  40   1.0000      -1.022806       -27.8320
  41   1.0000      -0.965208       -26.2646
  42   1.0000      -0.931960       -25.3599
  43   1.0000      -0.902989       -24.5716
  44   1.0000      -0.891651       -24.2631
  45   1.0000      -0.891526       -24.2597
  46   1.0000      -0.883228       -24.0339
  47   1.0000      -0.882860       -24.0239
  48   1.0000      -0.810701       -22.0603
  49   1.0000      -0.769755       -20.9461
  50   1.0000      -0.719753       -19.5855
  51   1.0000      -0.700499       -19.0616
  52   1.0000      -0.679241       -18.4831
  53   1.0000      -0.650650       -17.7051
  54   1.0000      -0.646858       -17.6019
  55   1.0000      -0.636445       -17.3185
  56   1.0000      -0.614401       -16.7187
  57   1.0000      -0.596686       -16.2366
  58   1.0000      -0.591902       -16.1065
  59   1.0000      -0.581327       -15.8187
  60   1.0000      -0.572079       -15.5671
  61   1.0000      -0.561226       -15.2717
  62   1.0000      -0.551527       -15.0078
  63   1.0000      -0.537802       -14.6343
  64   1.0000      -0.527843       -14.3633
  65   1.0000      -0.509688       -13.8693
  66   1.0000      -0.498101       -13.5540
  67   1.0000      -0.465511       -12.6672
  68   1.0000      -0.458692       -12.4816
  69   1.0000      -0.438293       -11.9266
  70   1.0000      -0.434253       -11.8166
  71   1.0000      -0.417534       -11.3617
  72   1.0000      -0.413598       -11.2546
  73   1.0000      -0.410306       -11.1650
  74   1.0000      -0.405974       -11.0471
  75   1.0000      -0.404600       -11.0097
  76   1.0000      -0.403850       -10.9893
  77   0.0000      -0.001511        -0.0411
  78   0.0000       0.000408         0.0111
  79   0.0000       0.016916         0.4603
  80   0.0000       0.017353         0.4722
  81   0.0000       0.026862         0.7309

                 SPIN DOWN ORBITALS
  NO   OCC          E(Eh)            E(eV)
   0   1.0000    -261.535055     -7116.7306
   1   1.0000    -104.765642     -2850.8181
   2   1.0000    -104.764618     -2850.7902
   3   1.0000    -104.762784     -2850.7403
   4   1.0000     -32.044478      -871.9746
   5   1.0000     -27.522567      -748.9271
   6   1.0000     -27.522379      -748.9220
   7   1.0000     -27.521895      -748.9088
   8   1.0000     -20.530739      -558.6698
   9   1.0000     -11.404244      -310.3253
  10   1.0000     -11.334760      -308.4345
  11   1.0000     -11.310266      -307.7680
  12   1.0000     -11.293320      -307.3069
  13   1.0000     -11.278160      -306.8943
  14   1.0000     -11.256304      -306.2996
  15   1.0000     -11.242766      -305.9312
  16   1.0000     -11.231023      -305.6117
  17   1.0000     -10.492139      -285.5056
  18   1.0000     -10.491092      -285.4771
  19   1.0000     -10.489289      -285.4281
  20   1.0000      -7.958031      -216.5490
  21   1.0000      -7.957493      -216.5344
  22   1.0000      -7.957418      -216.5323
  23   1.0000      -7.957041      -216.5221
  24   1.0000      -7.956435      -216.5056
  25   1.0000      -7.956330      -216.5027
  26   1.0000      -7.955254      -216.4735
  27   1.0000      -7.954554      -216.4544
  28   1.0000      -7.954482      -216.4524
  29   1.0000      -4.119784      -112.1050
  30   1.0000      -2.641714       -71.8847
  31   1.0000      -2.641587       -71.8812
  32   1.0000      -2.640654       -71.8558
  33   1.0000      -1.349104       -36.7110
  34   1.0000      -1.206156       -32.8212
  35   1.0000      -1.093292       -29.7500
  36   1.0000      -1.046774       -28.4842
  37   1.0000      -1.024184       -27.8695
  38   1.0000      -1.021011       -27.7831
  39   1.0000      -1.012570       -27.5534
  40   1.0000      -1.010900       -27.5080
  41   1.0000      -0.964565       -26.2472
  42   1.0000      -0.931521       -25.3480
  43   1.0000      -0.815227       -22.1834
  44   1.0000      -0.776140       -21.1198
  45   1.0000      -0.720472       -19.6050
  46   1.0000      -0.700107       -19.0509
  47   1.0000      -0.679458       -18.4890
  48   1.0000      -0.650001       -17.6874
  49   1.0000      -0.647855       -17.6290
  50   1.0000      -0.636285       -17.3142
  51   1.0000      -0.614451       -16.7201
  52   1.0000      -0.596534       -16.2325
  53   1.0000      -0.591875       -16.1057
  54   1.0000      -0.579644       -15.7729
  55   1.0000      -0.570790       -15.5320
  56   1.0000      -0.560694       -15.2573
  57   1.0000      -0.551415       -15.0048
  58   1.0000      -0.537690       -14.6313
  59   1.0000      -0.525083       -14.2882
  60   1.0000      -0.506868       -13.7926
  61   1.0000      -0.493595       -13.4314
  62   1.0000      -0.461470       -12.5573
  63   1.0000      -0.459546       -12.5049
  64   1.0000      -0.445592       -12.1252
  65   1.0000      -0.440333       -11.9821
  66   1.0000      -0.428262       -11.6536
  67   1.0000      -0.425147       -11.5688
  68   1.0000      -0.424054       -11.5391
  69   1.0000      -0.403622       -10.9831
  70   1.0000      -0.397608       -10.8195
  71   1.0000      -0.390705       -10.6316
  72   0.0000      -0.001604        -0.0436
  73   0.0000       0.000389         0.0106
  74   0.0000       0.016905         0.4600
  75   0.0000       0.017336         0.4717
  76   0.0000       0.026880         0.7315

E(0)                                       ...  -3028.421890807
E(0)                                       ...  -3028.421890807
E(CORR)(strong-pairs)                      ...     -2.875696626
E(CORR)(weak-pairs)                        ...     -0.035224827
E(CORR)(corrected)                         ...     -2.910921453
E(TOT)                                     ...  -3031.332812260
E(CCSD(T))                                 ...  -3031.451652517
FINAL SINGLE POINT ENERGY     -3031.451652517389

DIPOLE MOMENT
-------------
                                X             Y             Z
Electronic contribution:     41.74107       7.28002      -0.72366
Nuclear contribution   :    -47.73459      -7.27361       0.68868
                        -----------------------------------------
Total Dipole Moment    :     -5.99352       0.00641      -0.03498
                        -----------------------------------------
Magnitude (a.u.)       :      5.99363
Magnitude (Debye)      :     15.23459

Rotational constants in cm-1:     0.020097     0.010473     0.009975
Rotational constants in MHz :   602.503325   313.970613   299.052836

                             ****ORCA TERMINATED NORMALLY****
TOTAL RUN TIME: 0 days 20 hours 13 minutes 5 seconds 564 msec
