                         Program Version 4.1.2  - RELEASE  -
|  1> ! aug-cc-pVTZ aug-cc-pVTZ/C DLPNO-CCSD(T1) TightSCF NormalPNO UNO MiniPrint AutoAux
|  2> %pal nproc 10 end
|  3> %maxcore 20000
|  4> %mdci
|  5>      density none
|  6> end
|  7>
|  8> * xyz 0 6
|  9>  O      0.19045800      0.37352000     -0.87509400
| 10>  C      0.99326500      1.31909000     -0.67819100
| 11>  C      3.02906400      0.15831900      0.55900100
| 12>  C      2.67644000     -0.93338000     -0.15271400
| 13>  C      3.19799500     -1.16939500     -1.54343600
| 14> Fe     -1.48516900     -0.16458500      0.00599700
| 15> Cl     -2.05226500     -2.00892100     -0.99782900
| 16>  C      1.75761800     -2.00542600      0.35371200
| 17> Cl     -2.74012400      1.58020100     -0.40408300
| 18> Cl     -1.08259800     -0.40560500      2.15116200
| 19>  H      3.74629100      0.83976300      0.10095700
| 20>  H      2.28555200     -2.96784900      0.38325000
| 21>  H      1.35493500     -1.80604200      1.34630500
| 22>  H      0.91517800     -2.14055800     -0.33748200
| 23>  H      3.74470300     -2.12062500     -1.58091600
| 24>  H      2.37112800     -1.26251300     -2.26047500
| 25>  H      3.87575800     -0.37916300     -1.87817500
| 26>  C      2.77039800      0.38554900      2.02607200
| 27>  H      3.55692900     -0.09574100      2.62302900
| 28>  H      2.79481200      1.44985900      2.27786500
| 29>  H      1.81188900     -0.01824400      2.36072400
| 30>  C      0.80930300      2.24897000      0.48064400
| 31>  H      1.69640400      2.85422200      0.66952700
| 32>  H     -0.01739000      2.91802300      0.19792500
| 33>  H      0.50206300      1.71995700      1.38284800
| 34>  C      1.82281400      1.78190900     -1.83867300
| 35>  H      1.22678400      2.55642200     -2.34372800
| 36>  H      2.76223000      2.23754100     -1.52349300
| 37>  H      1.99685300      0.97571800     -2.54909000
| 38> *
| 39>
| 40>
| 41>                          ****END OF INPUT****

CARTESIAN COORDINATES (ANGSTROEM)
---------------------------------
  O      0.190458    0.373520   -0.875094
  C      0.993265    1.319090   -0.678191
  C      3.029064    0.158319    0.559001
  C      2.676440   -0.933380   -0.152714
  C      3.197995   -1.169395   -1.543436
  Fe    -1.485169   -0.164585    0.005997
  Cl    -2.052265   -2.008921   -0.997829
  C      1.757618   -2.005426    0.353712
  Cl    -2.740124    1.580201   -0.404083
  Cl    -1.082598   -0.405605    2.151162
  H      3.746291    0.839763    0.100957
  H      2.285552   -2.967849    0.383250
  H      1.354935   -1.806042    1.346305
  H      0.915178   -2.140558   -0.337482
  H      3.744703   -2.120625   -1.580916
  H      2.371128   -1.262513   -2.260475
  H      3.875758   -0.379163   -1.878175
  C      2.770398    0.385549    2.026072
  H      3.556929   -0.095741    2.623029
  H      2.794812    1.449859    2.277865
  H      1.811889   -0.018244    2.360724
  C      0.809303    2.248970    0.480644
  H      1.696404    2.854222    0.669527
  H     -0.017390    2.918023    0.197925
  H      0.502063    1.719957    1.382848
  C      1.822814    1.781909   -1.838673
  H      1.226784    2.556422   -2.343728
  H      2.762230    2.237541   -1.523493
  H      1.996853    0.975718   -2.549090

ORBITAL ENERGIES
----------------
                 SPIN UP ORBITALS
  NO   OCC          E(Eh)            E(eV)
   0   1.0000    -261.575573     -7117.8332
   1   1.0000    -104.793964     -2851.5887
   2   1.0000    -104.790597     -2851.4971
   3   1.0000    -104.788482     -2851.4396
   4   1.0000     -32.243286      -877.3844
   5   1.0000     -27.719765      -754.2932
   6   1.0000     -27.718631      -754.2623
   7   1.0000     -27.718429      -754.2568
   8   1.0000     -20.620435      -561.1105
   9   1.0000     -11.421618      -310.7980
  10   1.0000     -11.277665      -306.8809
  11   1.0000     -11.272346      -306.7361
  12   1.0000     -11.267905      -306.6153
  13   1.0000     -11.244339      -305.9740
  14   1.0000     -11.243773      -305.9586
  15   1.0000     -11.236165      -305.7516
  16   1.0000     -11.229685      -305.5753
  17   1.0000     -10.520686      -286.2824
  18   1.0000     -10.517287      -286.1899
  19   1.0000     -10.515124      -286.1311
  20   1.0000      -7.987517      -217.3514
  21   1.0000      -7.986764      -217.3309
  22   1.0000      -7.986714      -217.3295
  23   1.0000      -7.984162      -217.2601
  24   1.0000      -7.983386      -217.2390
  25   1.0000      -7.983332      -217.2375
  26   1.0000      -7.981913      -217.1989
  27   1.0000      -7.981255      -217.1810
  28   1.0000      -7.981204      -217.1796
  29   1.0000      -4.598156      -125.1222
  30   1.0000      -3.211303       -87.3840
  31   1.0000      -3.209562       -87.3366
  32   1.0000      -3.209398       -87.3322
  33   1.0000      -1.463932       -39.8356
  34   1.0000      -1.126618       -30.6568
  35   1.0000      -1.100649       -29.9502
  36   1.0000      -1.067006       -29.0347
  37   1.0000      -1.061149       -28.8753
  38   1.0000      -1.058091       -28.7921
  39   1.0000      -1.021963       -27.8090
  40   1.0000      -1.009173       -27.4610
  41   1.0000      -0.958759       -26.0892
  42   1.0000      -0.942675       -25.6515
  43   1.0000      -0.927074       -25.2270
  44   1.0000      -0.926939       -25.2233
  45   1.0000      -0.916292       -24.9336
  46   1.0000      -0.915620       -24.9153
  47   1.0000      -0.896215       -24.3872
  48   1.0000      -0.814026       -22.1508
  49   1.0000      -0.729804       -19.8590
  50   1.0000      -0.712211       -19.3803
  51   1.0000      -0.702160       -19.1068
  52   1.0000      -0.684126       -18.6160
  53   1.0000      -0.655153       -17.8276
  54   1.0000      -0.621486       -16.9115
  55   1.0000      -0.621000       -16.8983
  56   1.0000      -0.604918       -16.4607
  57   1.0000      -0.599552       -16.3146
  58   1.0000      -0.585895       -15.9430
  59   1.0000      -0.578670       -15.7464
  60   1.0000      -0.560909       -15.2631
  61   1.0000      -0.551781       -15.0147
  62   1.0000      -0.546454       -14.8698
  63   1.0000      -0.540661       -14.7121
  64   1.0000      -0.536913       -14.6101
  65   1.0000      -0.525828       -14.3085
  66   1.0000      -0.503576       -13.7030
  67   1.0000      -0.493093       -13.4177
  68   1.0000      -0.476971       -12.9790
  69   1.0000      -0.476282       -12.9603
  70   1.0000      -0.446790       -12.1578
  71   1.0000      -0.440616       -11.9898
  72   1.0000      -0.438712       -11.9380
  73   1.0000      -0.430155       -11.7051
  74   1.0000      -0.429162       -11.6781
  75   1.0000      -0.427810       -11.6413
  76   1.0000      -0.359735        -9.7889
  77   0.0000       0.012589         0.3426
  78   0.0000       0.023569         0.6413
  79   0.0000       0.024243         0.6597
  80   0.0000       0.030617         0.8331
  81   0.0000       0.039269         1.0686

                 SPIN DOWN ORBITALS
  NO   OCC          E(Eh)            E(eV)
   0   1.0000    -261.571992     -7117.7358
   1   1.0000    -104.792479     -2851.5483
   2   1.0000    -104.789041     -2851.4548
   3   1.0000    -104.786918     -2851.3970
   4   1.0000     -32.081293      -872.9764
   5   1.0000     -27.559218      -749.9245
   6   1.0000     -27.559134      -749.9221
   7   1.0000     -27.559031      -749.9194
   8   1.0000     -20.616920      -561.0149
   9   1.0000     -11.421543      -310.7960
  10   1.0000     -11.277557      -306.8779
  11   1.0000     -11.272336      -306.7359
  12   1.0000     -11.267924      -306.6158
  13   1.0000     -11.244294      -305.9728
  14   1.0000     -11.243771      -305.9586
  15   1.0000     -11.236167      -305.7517
  16   1.0000     -11.229696      -305.5756
  17   1.0000     -10.519099      -286.2392
  18   1.0000     -10.515626      -286.1447
  19   1.0000     -10.513462      -286.0858
  20   1.0000      -7.985019      -217.2834
  21   1.0000      -7.984281      -217.2633
  22   1.0000      -7.984243      -217.2623
  23   1.0000      -7.981511      -217.1880
  24   1.0000      -7.980816      -217.1690
  25   1.0000      -7.980726      -217.1666
  26   1.0000      -7.979452      -217.1319
  27   1.0000      -7.978558      -217.1076
  28   1.0000      -7.978475      -217.1053
  29   1.0000      -4.156072      -113.0925
  30   1.0000      -2.677620       -72.8618
  31   1.0000      -2.677600       -72.8612
  32   1.0000      -2.677138       -72.8486
  33   1.0000      -1.455326       -39.6014
  34   1.0000      -1.126309       -30.6484
  35   1.0000      -1.098298       -29.8862
  36   1.0000      -1.051339       -28.6084
  37   1.0000      -1.038778       -28.2666
  38   1.0000      -1.035370       -28.1738
  39   1.0000      -1.021202       -27.7883
  40   1.0000      -1.008729       -27.4489
  41   1.0000      -0.958664       -26.0866
  42   1.0000      -0.896336       -24.3905
  43   1.0000      -0.827072       -22.5058
  44   1.0000      -0.729876       -19.8609
  45   1.0000      -0.714165       -19.4334
  46   1.0000      -0.701314       -19.0837
  47   1.0000      -0.683510       -18.5993
  48   1.0000      -0.655092       -17.8259
  49   1.0000      -0.621380       -16.9086
  50   1.0000      -0.620513       -16.8850
  51   1.0000      -0.604682       -16.4542
  52   1.0000      -0.599447       -16.3118
  53   1.0000      -0.585598       -15.9349
  54   1.0000      -0.577194       -15.7062
  55   1.0000      -0.560166       -15.2429
  56   1.0000      -0.551508       -15.0073
  57   1.0000      -0.544989       -14.8299
  58   1.0000      -0.540484       -14.7073
  59   1.0000      -0.527333       -14.3495
  60   1.0000      -0.523586       -14.2475
  61   1.0000      -0.505432       -13.7535
  62   1.0000      -0.492979       -13.4146
  63   1.0000      -0.485287       -13.2053
  64   1.0000      -0.482594       -13.1320
  65   1.0000      -0.454149       -12.3580
  66   1.0000      -0.450797       -12.2668
  67   1.0000      -0.447868       -12.1871
  68   1.0000      -0.431601       -11.7445
  69   1.0000      -0.429058       -11.6753
  70   1.0000      -0.413343       -11.2476
  71   1.0000      -0.359182        -9.7738
  72   0.0000       0.012572         0.3421
  73   0.0000       0.023545         0.6407
  74   0.0000       0.024205         0.6587
  75   0.0000       0.030544         0.8312
  76   0.0000       0.039163         1.0657

E(0)                                       ...  -3028.465615667
E(0)                                       ...  -3028.465615667
E(CORR)(strong-pairs)                      ...     -2.867353365
E(CORR)(weak-pairs)                        ...     -0.035395059
E(CORR)(corrected)                         ...     -2.902748424
E(TOT)                                     ...  -3031.368364091
E(CCSD(T))                                 ...  -3031.486364795
FINAL SINGLE POINT ENERGY     -3031.486364794831

DIPOLE MOMENT
-------------
                                X             Y             Z
Electronic contribution:    -43.61095      -4.90781       1.52620
Nuclear contribution   :     46.93784       6.34966      -2.15791
                        -----------------------------------------
Total Dipole Moment    :      3.32689       1.44185      -0.63171
                        -----------------------------------------
Magnitude (a.u.)       :      3.68051
Magnitude (Debye)      :      9.35512

Rotational constants in cm-1:     0.018856     0.010698     0.010067
Rotational constants in MHz :   565.298246   320.708706   301.792865

                             ****ORCA TERMINATED NORMALLY****
TOTAL RUN TIME: 0 days 17 hours 28 minutes 7 seconds 377 msec
