                         Program Version 4.1.2  - RELEASE  -
|  1> ! aug-cc-pVTZ aug-cc-pVTZ/C DLPNO-CCSD(T1) TightSCF NormalPNO UNO MiniPrint AutoAux
|  2> %pal nproc 10 end
|  3> %maxcore 20000
|  4> %mdci
|  5>      density none
|  6> end
|  7>
|  8> * xyz 0 6
|  9>  O     -0.26484100     -0.25763500     -0.81259200
| 10>  C     -1.11568200     -1.18635600     -0.64458200
| 11>  C     -2.91355100     -0.20380700      0.50640600
| 12>  C     -2.57575800      0.95396500     -0.11853300
| 13>  C     -3.09271300      1.29906300     -1.48358300
| 14> Fe      1.45211100      0.13750700     -0.00053100
| 15> Cl      2.04877800      2.03363900     -0.90047300
| 16>  C     -1.66635400      1.98024600      0.47725800
| 17> Cl      2.64976400     -1.60813200     -0.56458200
| 18> Cl      1.14730100      0.26146100      2.17893700
| 19>  H     -3.65255500     -0.83290800      0.01272000
| 20>  H     -2.21489700      2.92302500      0.60567600
| 21>  H     -1.24534700      1.69301300      1.43950700
| 22>  H     -0.84056000      2.19695900     -0.21229200
| 23>  H     -3.60321500      2.26980700     -1.44525300
| 24>  H     -2.26116700      1.41653800     -2.19115000
| 25>  H     -3.79868300      0.56036600     -1.87038700
| 26>  C     -2.71624300     -0.47409800      1.97875700
| 27>  H     -3.48787100      0.05439200      2.55366800
| 28>  H     -2.82215400     -1.53719300      2.20839100
| 29>  H     -1.74443700     -0.14225600      2.35115900
| 30>  C     -0.87539300     -2.22901700      0.41192800
| 31>  H     -1.75093400     -2.85583200      0.58546800
| 32>  H     -0.06826900     -2.86107700      0.01329700
| 33>  H     -0.51684100     -1.79863800      1.34621100
| 34>  C     -1.87007800     -1.63465500     -1.86989400
| 35>  H     -1.19587200     -2.33143700     -2.38771800
| 36>  H     -2.78859000     -2.17181500     -1.62903700
| 37>  H     -2.06948300     -0.80755100     -2.54825700
| 38> *
| 39>
| 40>
| 41>                          ****END OF INPUT****

CARTESIAN COORDINATES (ANGSTROEM)
---------------------------------
  O     -0.264841   -0.257635   -0.812592
  C     -1.115682   -1.186356   -0.644582
  C     -2.913551   -0.203807    0.506406
  C     -2.575758    0.953965   -0.118533
  C     -3.092713    1.299063   -1.483583
  Fe     1.452111    0.137507   -0.000531
  Cl     2.048778    2.033639   -0.900473
  C     -1.666354    1.980246    0.477258
  Cl     2.649764   -1.608132   -0.564582
  Cl     1.147301    0.261461    2.178937
  H     -3.652555   -0.832908    0.012720
  H     -2.214897    2.923025    0.605676
  H     -1.245347    1.693013    1.439507
  H     -0.840560    2.196959   -0.212292
  H     -3.603215    2.269807   -1.445253
  H     -2.261167    1.416538   -2.191150
  H     -3.798683    0.560366   -1.870387
  C     -2.716243   -0.474098    1.978757
  H     -3.487871    0.054392    2.553668
  H     -2.822154   -1.537193    2.208391
  H     -1.744437   -0.142256    2.351159
  C     -0.875393   -2.229017    0.411928
  H     -1.750934   -2.855832    0.585468
  H     -0.068269   -2.861077    0.013297
  H     -0.516841   -1.798638    1.346211
  C     -1.870078   -1.634655   -1.869894
  H     -1.195872   -2.331437   -2.387718
  H     -2.788590   -2.171815   -1.629037
  H     -2.069483   -0.807551   -2.548257

ORBITAL ENERGIES
----------------
                 SPIN UP ORBITALS
  NO   OCC          E(Eh)            E(eV)
   0   1.0000    -261.569134     -7117.6580
   1   1.0000    -104.789581     -2851.4695
   2   1.0000    -104.785895     -2851.3692
   3   1.0000    -104.784384     -2851.3280
   4   1.0000     -32.236918      -877.2111
   5   1.0000     -27.713245      -754.1157
   6   1.0000     -27.712348      -754.0913
   7   1.0000     -27.712165      -754.0864
   8   1.0000     -20.600940      -560.5801
   9   1.0000     -11.417133      -310.6760
  10   1.0000     -11.290479      -307.2296
  11   1.0000     -11.272644      -306.7442
  12   1.0000     -11.266865      -306.5870
  13   1.0000     -11.254111      -306.2399
  14   1.0000     -11.253110      -306.2127
  15   1.0000     -11.241586      -305.8991
  16   1.0000     -11.237442      -305.7863
  17   1.0000     -10.516271      -286.1623
  18   1.0000     -10.512566      -286.0615
  19   1.0000     -10.511008      -286.0191
  20   1.0000      -7.983123      -217.2318
  21   1.0000      -7.982328      -217.2102
  22   1.0000      -7.982290      -217.2092
  23   1.0000      -7.979434      -217.1314
  24   1.0000      -7.978663      -217.1105
  25   1.0000      -7.978605      -217.1089
  26   1.0000      -7.977807      -217.0872
  27   1.0000      -7.977129      -217.0687
  28   1.0000      -7.977073      -217.0672
  29   1.0000      -4.591946      -124.9532
  30   1.0000      -3.204947       -87.2110
  31   1.0000      -3.203511       -87.1720
  32   1.0000      -3.203304       -87.1663
  33   1.0000      -1.446320       -39.3564
  34   1.0000      -1.141491       -31.0616
  35   1.0000      -1.095088       -29.7989
  36   1.0000      -1.061917       -28.8962
  37   1.0000      -1.056114       -28.7383
  38   1.0000      -1.053267       -28.6609
  39   1.0000      -1.027688       -27.9648
  40   1.0000      -1.004480       -27.3333
  41   1.0000      -0.969212       -26.3736
  42   1.0000      -0.936882       -25.4939
  43   1.0000      -0.920987       -25.0613
  44   1.0000      -0.920917       -25.0594
  45   1.0000      -0.910852       -24.7856
  46   1.0000      -0.910106       -24.7652
  47   1.0000      -0.906314       -24.6621
  48   1.0000      -0.805380       -21.9155
  49   1.0000      -0.741208       -20.1693
  50   1.0000      -0.702141       -19.1062
  51   1.0000      -0.693061       -18.8592
  52   1.0000      -0.684350       -18.6221
  53   1.0000      -0.664426       -18.0800
  54   1.0000      -0.630966       -17.1695
  55   1.0000      -0.621873       -16.9220
  56   1.0000      -0.605052       -16.4643
  57   1.0000      -0.597347       -16.2546
  58   1.0000      -0.583685       -15.8829
  59   1.0000      -0.575276       -15.6541
  60   1.0000      -0.562360       -15.3026
  61   1.0000      -0.557041       -15.1578
  62   1.0000      -0.549337       -14.9482
  63   1.0000      -0.547371       -14.8947
  64   1.0000      -0.535834       -14.5808
  65   1.0000      -0.529189       -14.4000
  66   1.0000      -0.504208       -13.7202
  67   1.0000      -0.495238       -13.4761
  68   1.0000      -0.472900       -12.8683
  69   1.0000      -0.470421       -12.8008
  70   1.0000      -0.441690       -12.0190
  71   1.0000      -0.436575       -11.8798
  72   1.0000      -0.434762       -11.8305
  73   1.0000      -0.426046       -11.5933
  74   1.0000      -0.424942       -11.5633
  75   1.0000      -0.423790       -11.5319
  76   1.0000      -0.367469        -9.9994
  77   0.0000       0.012103         0.3293
  78   0.0000       0.022509         0.6125
  79   0.0000       0.023481         0.6390
  80   0.0000       0.030171         0.8210
  81   0.0000       0.038652         1.0518

                 SPIN DOWN ORBITALS
  NO   OCC          E(Eh)            E(eV)
   0   1.0000    -261.565568     -7117.5609
   1   1.0000    -104.788136     -2851.4301
   2   1.0000    -104.784368     -2851.3276
   3   1.0000    -104.782869     -2851.2868
   4   1.0000     -32.074889      -872.8021
   5   1.0000     -27.552805      -749.7499
   6   1.0000     -27.552761      -749.7487
   7   1.0000     -27.552573      -749.7436
   8   1.0000     -20.597035      -560.4738
   9   1.0000     -11.417046      -310.6736
  10   1.0000     -11.290407      -307.2276
  11   1.0000     -11.272531      -306.7412
  12   1.0000     -11.266852      -306.5866
  13   1.0000     -11.254095      -306.2395
  14   1.0000     -11.253119      -306.2129
  15   1.0000     -11.241586      -305.8991
  16   1.0000     -11.237470      -305.7871
  17   1.0000     -10.514724      -286.1202
  18   1.0000     -10.510935      -286.0171
  19   1.0000     -10.509396      -285.9752
  20   1.0000      -7.980623      -217.1638
  21   1.0000      -7.979963      -217.1458
  22   1.0000      -7.979915      -217.1445
  23   1.0000      -7.976831      -217.0606
  24   1.0000      -7.976144      -217.0419
  25   1.0000      -7.976055      -217.0395
  26   1.0000      -7.975378      -217.0211
  27   1.0000      -7.974543      -216.9983
  28   1.0000      -7.974458      -216.9960
  29   1.0000      -4.149737      -112.9201
  30   1.0000      -2.671340       -72.6909
  31   1.0000      -2.671326       -72.6905
  32   1.0000      -2.670718       -72.6739
  33   1.0000      -1.436556       -39.0907
  34   1.0000      -1.141036       -31.0492
  35   1.0000      -1.092498       -29.7284
  36   1.0000      -1.046735       -28.4831
  37   1.0000      -1.034368       -28.1466
  38   1.0000      -1.031192       -28.0602
  39   1.0000      -1.027158       -27.9504
  40   1.0000      -1.003708       -27.3123
  41   1.0000      -0.969112       -26.3709
  42   1.0000      -0.906757       -24.6741
  43   1.0000      -0.818721       -22.2785
  44   1.0000      -0.741301       -20.1718
  45   1.0000      -0.704790       -19.1783
  46   1.0000      -0.692196       -18.8356
  47   1.0000      -0.683484       -18.5985
  48   1.0000      -0.664282       -18.0760
  49   1.0000      -0.630905       -17.1678
  50   1.0000      -0.621369       -16.9083
  51   1.0000      -0.604591       -16.4518
  52   1.0000      -0.597265       -16.2524
  53   1.0000      -0.583441       -15.8763
  54   1.0000      -0.574090       -15.6218
  55   1.0000      -0.561978       -15.2922
  56   1.0000      -0.556860       -15.1529
  57   1.0000      -0.549033       -14.9400
  58   1.0000      -0.545313       -14.8387
  59   1.0000      -0.534342       -14.5402
  60   1.0000      -0.518750       -14.1159
  61   1.0000      -0.504054       -13.7160
  62   1.0000      -0.495999       -13.4968
  63   1.0000      -0.480303       -13.0697
  64   1.0000      -0.477976       -13.0064
  65   1.0000      -0.449691       -12.2367
  66   1.0000      -0.446586       -12.1522
  67   1.0000      -0.443891       -12.0789
  68   1.0000      -0.428158       -11.6508
  69   1.0000      -0.424691       -11.5564
  70   1.0000      -0.409694       -11.1483
  71   1.0000      -0.366259        -9.9664
  72   0.0000       0.012089         0.3290
  73   0.0000       0.022484         0.6118
  74   0.0000       0.023459         0.6383
  75   0.0000       0.030067         0.8182
  76   0.0000       0.038426         1.0456

E(0)                                       ...  -3028.447686912
E(0)                                       ...  -3028.447686912
E(CORR)(strong-pairs)                      ...     -2.871865455
E(CORR)(weak-pairs)                        ...     -0.035910660
E(CORR)(corrected)                         ...     -2.907776115
E(TOT)                                     ...  -3031.355463027
E(CCSD(T))                                 ...  -3031.474610379
FINAL SINGLE POINT ENERGY     -3031.474610378567

DIPOLE MOMENT
-------------
                                X             Y             Z
Electronic contribution:     42.48083       4.47374       1.52236
Nuclear contribution   :    -46.23423      -5.52834      -2.11986
                        -----------------------------------------
Total Dipole Moment    :     -3.75340      -1.05460      -0.59750
                        -----------------------------------------
Magnitude (a.u.)       :      3.94426
Magnitude (Debye)      :     10.02551

Rotational constants in cm-1:     0.019047     0.011029     0.010377
Rotational constants in MHz :   571.028841   330.645282   311.096361

                             ****ORCA TERMINATED NORMALLY****
TOTAL RUN TIME: 0 days 18 hours 29 minutes 11 seconds 601 msec
