                         Program Version 4.1.2  - RELEASE  -
|  1> ! aug-cc-pVTZ aug-cc-pVTZ/C DLPNO-CCSD(T1) TightSCF NormalPNO UNO MiniPrint AutoAux
|  2> %pal nproc 10 end
|  3> %maxcore 20000
|  4> %mdci
|  5>      density none
|  6> end
|  7>
|  8> * xyz 0 6
|  9>  O      0.27321900      0.26325200     -0.76494100
| 10>  C      1.05749100      1.23487900     -0.62740200
| 11>  C      3.21849300     -0.01405600      0.26295100
| 12>  C      2.46787000     -1.02286900     -0.22695900
| 13>  C      2.57376400     -1.45487500     -1.66276500
| 14> Fe     -1.47335700     -0.11759300      0.05142800
| 15> Cl     -2.10699400     -1.97509800     -0.88964000
| 16>  C      1.58084300     -1.89174100      0.61681600
| 17> Cl     -2.57016600      1.68472300     -0.54314100
| 18> Cl     -1.24033000     -0.23666900      2.22970600
| 19>  H      3.89928600      0.48312000     -0.42787800
| 20>  H      2.11191300     -2.82508600      0.85022500
| 21>  H      1.28322900     -1.43466200      1.56076600
| 22>  H      0.67744400     -2.18069200      0.07014600
| 23>  H      2.88139600     -2.50764700     -1.70843200
| 24>  H      1.59707400     -1.39497100     -2.15837900
| 25>  H      3.30500600     -0.86773400     -2.22585600
| 26>  C      3.37977100      0.36865400      1.70846200
| 27>  H      4.28191700     -0.10120300      2.12373500
| 28>  H      3.50823500      1.44976200      1.82971700
| 29>  H      2.53675600      0.05553100      2.32967700
| 30>  C      0.98064400      2.11328500      0.58085100
| 31>  H      1.87411300      2.72581900      0.70359000
| 32>  H      0.12130400      2.78100900      0.41593300
| 33>  H      0.77422900      1.53830200      1.48413300
| 34>  C      1.76639700      1.74810300     -1.84343600
| 35>  H      1.08918700      2.49211400     -2.28950800
| 36>  H      2.70277700      2.25058100     -1.59754400
| 37>  H      1.92334600      0.95862000     -2.57676400
| 38> *
| 39>
| 40>
| 41>                          ****END OF INPUT****

CARTESIAN COORDINATES (ANGSTROEM)
---------------------------------
  O      0.273219    0.263252   -0.764941
  C      1.057491    1.234879   -0.627402
  C      3.218493   -0.014056    0.262951
  C      2.467870   -1.022869   -0.226959
  C      2.573764   -1.454875   -1.662765
  Fe    -1.473357   -0.117593    0.051428
  Cl    -2.106994   -1.975098   -0.889640
  C      1.580843   -1.891741    0.616816
  Cl    -2.570166    1.684723   -0.543141
  Cl    -1.240330   -0.236669    2.229706
  H      3.899286    0.483120   -0.427878
  H      2.111913   -2.825086    0.850225
  H      1.283229   -1.434662    1.560766
  H      0.677444   -2.180692    0.070146
  H      2.881396   -2.507647   -1.708432
  H      1.597074   -1.394971   -2.158379
  H      3.305006   -0.867734   -2.225856
  C      3.379771    0.368654    1.708462
  H      4.281917   -0.101203    2.123735
  H      3.508235    1.449762    1.829717
  H      2.536756    0.055531    2.329677
  C      0.980644    2.113285    0.580851
  H      1.874113    2.725819    0.703590
  H      0.121304    2.781009    0.415933
  H      0.774229    1.538302    1.484133
  C      1.766397    1.748103   -1.843436
  H      1.089187    2.492114   -2.289508
  H      2.702777    2.250581   -1.597544
  H      1.923346    0.958620   -2.576764

ORBITAL ENERGIES
----------------
                 SPIN UP ORBITALS
  NO   OCC          E(Eh)            E(eV)
   0   1.0000    -261.576018     -7117.8453
   1   1.0000    -104.793123     -2851.5659
   2   1.0000    -104.790811     -2851.5029
   3   1.0000    -104.789420     -2851.4651
   4   1.0000     -32.243697      -877.3956
   5   1.0000     -27.720184      -754.3046
   6   1.0000     -27.719037      -754.2733
   7   1.0000     -27.718870      -754.2688
   8   1.0000     -20.615881      -560.9866
   9   1.0000     -11.422848      -310.8315
  10   1.0000     -11.277882      -306.8868
  11   1.0000     -11.272417      -306.7381
  12   1.0000     -11.268681      -306.6364
  13   1.0000     -11.243198      -305.9430
  14   1.0000     -11.241424      -305.8947
  15   1.0000     -11.239848      -305.8518
  16   1.0000     -11.230835      -305.6066
  17   1.0000     -10.519828      -286.2591
  18   1.0000     -10.517483      -286.1953
  19   1.0000     -10.516039      -286.1560
  20   1.0000      -7.986659      -217.3280
  21   1.0000      -7.985913      -217.3077
  22   1.0000      -7.985860      -217.3063
  23   1.0000      -7.984380      -217.2660
  24   1.0000      -7.983575      -217.2441
  25   1.0000      -7.983503      -217.2422
  26   1.0000      -7.982824      -217.2237
  27   1.0000      -7.982163      -217.2057
  28   1.0000      -7.982116      -217.2044
  29   1.0000      -4.598572      -125.1335
  30   1.0000      -3.211733       -87.3957
  31   1.0000      -3.209964       -87.3475
  32   1.0000      -3.209830       -87.3439
  33   1.0000      -1.464414       -39.8487
  34   1.0000      -1.127242       -30.6738
  35   1.0000      -1.101916       -29.9847
  36   1.0000      -1.066560       -29.0226
  37   1.0000      -1.060988       -28.8710
  38   1.0000      -1.058652       -28.8074
  39   1.0000      -1.022092       -27.8125
  40   1.0000      -1.011464       -27.5233
  41   1.0000      -0.959141       -26.0996
  42   1.0000      -0.942870       -25.6568
  43   1.0000      -0.927545       -25.2398
  44   1.0000      -0.927406       -25.2360
  45   1.0000      -0.916515       -24.9396
  46   1.0000      -0.916245       -24.9323
  47   1.0000      -0.897626       -24.4256
  48   1.0000      -0.813470       -22.1357
  49   1.0000      -0.729873       -19.8608
  50   1.0000      -0.712256       -19.3815
  51   1.0000      -0.703626       -19.1466
  52   1.0000      -0.688799       -18.7432
  53   1.0000      -0.655478       -17.8365
  54   1.0000      -0.622563       -16.9408
  55   1.0000      -0.621426       -16.9099
  56   1.0000      -0.602832       -16.4039
  57   1.0000      -0.600748       -16.3472
  58   1.0000      -0.585823       -15.9411
  59   1.0000      -0.580064       -15.7843
  60   1.0000      -0.559712       -15.2306
  61   1.0000      -0.554587       -15.0911
  62   1.0000      -0.552254       -15.0276
  63   1.0000      -0.539091       -14.6694
  64   1.0000      -0.533875       -14.5275
  65   1.0000      -0.526736       -14.3332
  66   1.0000      -0.502818       -13.6824
  67   1.0000      -0.493820       -13.4375
  68   1.0000      -0.477528       -12.9942
  69   1.0000      -0.475536       -12.9400
  70   1.0000      -0.446788       -12.1577
  71   1.0000      -0.440447       -11.9852
  72   1.0000      -0.438998       -11.9457
  73   1.0000      -0.430397       -11.7117
  74   1.0000      -0.428905       -11.6711
  75   1.0000      -0.428432       -11.6582
  76   1.0000      -0.358680        -9.7602
  77   0.0000       0.012898         0.3510
  78   0.0000       0.023776         0.6470
  79   0.0000       0.024441         0.6651
  80   0.0000       0.030560         0.8316
  81   0.0000       0.039534         1.0758

                 SPIN DOWN ORBITALS
  NO   OCC          E(Eh)            E(eV)
   0   1.0000    -261.572442     -7117.7480
   1   1.0000    -104.791624     -2851.5251
   2   1.0000    -104.789269     -2851.4610
   3   1.0000    -104.787870     -2851.4229
   4   1.0000     -32.081720      -872.9880
   5   1.0000     -27.559661      -749.9365
   6   1.0000     -27.559558      -749.9337
   7   1.0000     -27.559438      -749.9304
   8   1.0000     -20.612435      -560.8929
   9   1.0000     -11.422716      -310.8279
  10   1.0000     -11.277780      -306.8840
  11   1.0000     -11.272415      -306.7380
  12   1.0000     -11.268760      -306.6386
  13   1.0000     -11.243068      -305.9394
  14   1.0000     -11.241433      -305.8950
  15   1.0000     -11.239834      -305.8514
  16   1.0000     -11.230841      -305.6067
  17   1.0000     -10.518227      -286.2155
  18   1.0000     -10.515836      -286.1504
  19   1.0000     -10.514392      -286.1112
  20   1.0000      -7.984149      -217.2598
  21   1.0000      -7.983402      -217.2394
  22   1.0000      -7.983355      -217.2381
  23   1.0000      -7.981697      -217.1930
  24   1.0000      -7.981057      -217.1756
  25   1.0000      -7.980955      -217.1728
  26   1.0000      -7.980386      -217.1573
  27   1.0000      -7.979493      -217.1330
  28   1.0000      -7.979413      -217.1309
  29   1.0000      -4.156481      -113.1036
  30   1.0000      -2.678032       -72.8730
  31   1.0000      -2.677973       -72.8714
  32   1.0000      -2.677581       -72.8607
  33   1.0000      -1.455866       -39.6161
  34   1.0000      -1.126923       -30.6651
  35   1.0000      -1.099609       -29.9219
  36   1.0000      -1.050961       -28.5981
  37   1.0000      -1.038438       -28.2573
  38   1.0000      -1.036142       -28.1949
  39   1.0000      -1.021433       -27.7946
  40   1.0000      -1.010930       -27.5088
  41   1.0000      -0.958958       -26.0946
  42   1.0000      -0.897806       -24.4305
  43   1.0000      -0.826110       -22.4796
  44   1.0000      -0.729931       -19.8624
  45   1.0000      -0.714398       -19.4398
  46   1.0000      -0.702801       -19.1242
  47   1.0000      -0.688099       -18.7241
  48   1.0000      -0.655435       -17.8353
  49   1.0000      -0.622242       -16.9321
  50   1.0000      -0.621152       -16.9024
  51   1.0000      -0.602622       -16.3982
  52   1.0000      -0.600732       -16.3468
  53   1.0000      -0.585527       -15.9330
  54   1.0000      -0.579262       -15.7625
  55   1.0000      -0.558701       -15.2030
  56   1.0000      -0.553921       -15.0730
  57   1.0000      -0.550642       -14.9837
  58   1.0000      -0.539066       -14.6687
  59   1.0000      -0.528212       -14.3734
  60   1.0000      -0.521677       -14.1956
  61   1.0000      -0.503812       -13.7094
  62   1.0000      -0.493622       -13.4321
  63   1.0000      -0.484955       -13.1963
  64   1.0000      -0.483141       -13.1469
  65   1.0000      -0.453877       -12.3506
  66   1.0000      -0.450766       -12.2660
  67   1.0000      -0.447969       -12.1899
  68   1.0000      -0.431632       -11.7453
  69   1.0000      -0.429580       -11.6895
  70   1.0000      -0.413457       -11.2507
  71   1.0000      -0.357986        -9.7413
  72   0.0000       0.012884         0.3506
  73   0.0000       0.023751         0.6463
  74   0.0000       0.024408         0.6642
  75   0.0000       0.030515         0.8304
  76   0.0000       0.039432         1.0730

E(0)                                       ...  -3028.459076700
E(0)                                       ...  -3028.459076700
E(CORR)(strong-pairs)                      ...     -2.868269874
E(CORR)(weak-pairs)                        ...     -0.035808782
E(CORR)(corrected)                         ...     -2.904078656
E(TOT)                                     ...  -3031.363155356
E(CCSD(T))                                 ...  -3031.481274366
FINAL SINGLE POINT ENERGY     -3031.481274366128

DIPOLE MOMENT
-------------
                                X             Y             Z
Electronic contribution:    -43.54479      -3.20294       2.23668
Nuclear contribution   :     46.89931       4.46205      -2.85724
                        -----------------------------------------
Total Dipole Moment    :      3.35452       1.25911      -0.62057
                        -----------------------------------------
Magnitude (a.u.)       :      3.63638
Magnitude (Debye)      :      9.24296

Rotational constants in cm-1:     0.019043     0.010806     0.010184
Rotational constants in MHz :   570.884545   323.958858   305.304900

                             ****ORCA TERMINATED NORMALLY****
TOTAL RUN TIME: 0 days 17 hours 55 minutes 30 seconds 702 msec
