                         Program Version 4.1.2  - RELEASE  -
|  1> ! aug-cc-pVTZ aug-cc-pVTZ/C DLPNO-CCSD(T1) TightSCF NormalPNO UNO MiniPrint AutoAux
|  2> %pal nproc 10 end
|  3> %maxcore 20000
|  4> %mdci
|  5>      density none
|  6> end
|  7>
|  8> * xyz 0 6
|  9>  O     -0.30586500     -0.17498500     -0.68477700
| 10>  C     -1.14194600     -1.12206000     -0.58851700
| 11>  C     -3.18816100      0.01281400      0.13781800
| 12>  C     -2.37809900      1.04201200     -0.20799700
| 13>  C     -2.36844700      1.60052900     -1.60031100
| 14> Fe      1.46798800      0.08787600      0.05401900
| 15> Cl      2.10112800      1.98922600     -0.80974200
| 16>  C     -1.55761700      1.81307600      0.78333600
| 17> Cl      2.49267600     -1.71039000     -0.67592000
| 18> Cl      1.32906600      0.10515100      2.24776500
| 19>  H     -3.82598000     -0.40175200     -0.64119100
| 20>  H     -2.15346300      2.66424500      1.14185700
| 21>  H     -1.25823000      1.23005200      1.65499500
| 22>  H     -0.65986000      2.22819000      0.31694500
| 23>  H     -2.65868800      2.65852800     -1.56096500
| 24>  H     -1.35790800      1.56809600     -2.02272400
| 25>  H     -3.06551400      1.08658800     -2.26756200
| 26>  C     -3.52100300     -0.42426300      1.53831800
| 27>  H     -4.43706100      0.08117100      1.87337100
| 28>  H     -3.71867400     -1.49959400      1.59438000
| 29>  H     -2.73696400     -0.18303700      2.26008400
| 30>  C     -1.08184900     -2.04728400      0.58846900
| 31>  H     -1.97313900     -2.66797600      0.67920900
| 32>  H     -0.21995000     -2.70554700      0.40012400
| 33>  H     -0.88033600     -1.51218500      1.51670700
| 34>  C     -1.74641000     -1.64004600     -1.86196000
| 35>  H     -0.98936200     -2.31487000     -2.28850100
| 36>  H     -2.65883000     -2.21319700     -1.69172200
| 37>  H     -1.91442500     -0.84003100     -2.58196300
| 38> *
| 39>
| 40>
| 41>                          ****END OF INPUT****

CARTESIAN COORDINATES (ANGSTROEM)
---------------------------------
  O     -0.305865   -0.174985   -0.684777
  C     -1.141946   -1.122060   -0.588517
  C     -3.188161    0.012814    0.137818
  C     -2.378099    1.042012   -0.207997
  C     -2.368447    1.600529   -1.600311
  Fe     1.467988    0.087876    0.054019
  Cl     2.101128    1.989226   -0.809742
  C     -1.557617    1.813076    0.783336
  Cl     2.492676   -1.710390   -0.675920
  Cl     1.329066    0.105151    2.247765
  H     -3.825980   -0.401752   -0.641191
  H     -2.153463    2.664245    1.141857
  H     -1.258230    1.230052    1.654995
  H     -0.659860    2.228190    0.316945
  H     -2.658688    2.658528   -1.560965
  H     -1.357908    1.568096   -2.022724
  H     -3.065514    1.086588   -2.267562
  C     -3.521003   -0.424263    1.538318
  H     -4.437061    0.081171    1.873371
  H     -3.718674   -1.499594    1.594380
  H     -2.736964   -0.183037    2.260084
  C     -1.081849   -2.047284    0.588469
  H     -1.973139   -2.667976    0.679209
  H     -0.219950   -2.705547    0.400124
  H     -0.880336   -1.512185    1.516707
  C     -1.746410   -1.640046   -1.861960
  H     -0.989362   -2.314870   -2.288501
  H     -2.658830   -2.213197   -1.691722
  H     -1.914425   -0.840031   -2.581963

ORBITAL ENERGIES
----------------
                 SPIN UP ORBITALS
  NO   OCC          E(Eh)            E(eV)
   0   1.0000    -261.571131     -7117.7123
   1   1.0000    -104.789627     -2851.4707
   2   1.0000    -104.787830     -2851.4218
   3   1.0000    -104.786640     -2851.3894
   4   1.0000     -32.238873      -877.2643
   5   1.0000     -27.715264      -754.1707
   6   1.0000     -27.714264      -754.1435
   7   1.0000     -27.714119      -754.1395
   8   1.0000     -20.601434      -560.5935
   9   1.0000     -11.421509      -310.7951
  10   1.0000     -11.284192      -307.0585
  11   1.0000     -11.275083      -306.8106
  12   1.0000     -11.269908      -306.6698
  13   1.0000     -11.249974      -306.1274
  14   1.0000     -11.246653      -306.0370
  15   1.0000     -11.244168      -305.9694
  16   1.0000     -11.237097      -305.7770
  17   1.0000     -10.516308      -286.1633
  18   1.0000     -10.514464      -286.1131
  19   1.0000     -10.513235      -286.0797
  20   1.0000      -7.983155      -217.2327
  21   1.0000      -7.982382      -217.2117
  22   1.0000      -7.982338      -217.2105
  23   1.0000      -7.981349      -217.1836
  24   1.0000      -7.980560      -217.1621
  25   1.0000      -7.980477      -217.1598
  26   1.0000      -7.980027      -217.1476
  27   1.0000      -7.979358      -217.1294
  28   1.0000      -7.979299      -217.1278
  29   1.0000      -4.593920      -125.0069
  30   1.0000      -3.207039       -87.2680
  31   1.0000      -3.205427       -87.2241
  32   1.0000      -3.205222       -87.2185
  33   1.0000      -1.453742       -39.5583
  34   1.0000      -1.137398       -30.9502
  35   1.0000      -1.098884       -29.9021
  36   1.0000      -1.062760       -28.9192
  37   1.0000      -1.057328       -28.7713
  38   1.0000      -1.055161       -28.7124
  39   1.0000      -1.025750       -27.9121
  40   1.0000      -1.010192       -27.4887
  41   1.0000      -0.965965       -26.2852
  42   1.0000      -0.939339       -25.5607
  43   1.0000      -0.923102       -25.1189
  44   1.0000      -0.922948       -25.1147
  45   1.0000      -0.912382       -24.8272
  46   1.0000      -0.912229       -24.8230
  47   1.0000      -0.904899       -24.6235
  48   1.0000      -0.807885       -21.9837
  49   1.0000      -0.737355       -20.0645
  50   1.0000      -0.706261       -19.2183
  51   1.0000      -0.699364       -19.0307
  52   1.0000      -0.690607       -18.7924
  53   1.0000      -0.661335       -17.9958
  54   1.0000      -0.628615       -17.1055
  55   1.0000      -0.620634       -16.8883
  56   1.0000      -0.602945       -16.4070
  57   1.0000      -0.600738       -16.3469
  58   1.0000      -0.584339       -15.9007
  59   1.0000      -0.578933       -15.7536
  60   1.0000      -0.562064       -15.2945
  61   1.0000      -0.559971       -15.2376
  62   1.0000      -0.552975       -15.0472
  63   1.0000      -0.543185       -14.7808
  64   1.0000      -0.534404       -14.5419
  65   1.0000      -0.527321       -14.3491
  66   1.0000      -0.501915       -13.6578
  67   1.0000      -0.497369       -13.5341
  68   1.0000      -0.475127       -12.9289
  69   1.0000      -0.470809       -12.8114
  70   1.0000      -0.443574       -12.0703
  71   1.0000      -0.437548       -11.9063
  72   1.0000      -0.436130       -11.8677
  73   1.0000      -0.427631       -11.6364
  74   1.0000      -0.425962       -11.5910
  75   1.0000      -0.425716       -11.5843
  76   1.0000      -0.362835        -9.8732
  77   0.0000       0.012572         0.3421
  78   0.0000       0.023520         0.6400
  79   0.0000       0.023698         0.6449
  80   0.0000       0.030385         0.8268
  81   0.0000       0.039484         1.0744

                 SPIN DOWN ORBITALS
  NO   OCC          E(Eh)            E(eV)
   0   1.0000    -261.567565     -7117.6153
   1   1.0000    -104.788148     -2851.4305
   2   1.0000    -104.786315     -2851.3806
   3   1.0000    -104.785128     -2851.3483
   4   1.0000     -32.076872      -872.8561
   5   1.0000     -27.554796      -749.8041
   6   1.0000     -27.554741      -749.8026
   7   1.0000     -27.554551      -749.7975
   8   1.0000     -20.597682      -560.4914
   9   1.0000     -11.421342      -310.7905
  10   1.0000     -11.284278      -307.0608
  11   1.0000     -11.274982      -306.8079
  12   1.0000     -11.269902      -306.6696
  13   1.0000     -11.249768      -306.1218
  14   1.0000     -11.246674      -306.0376
  15   1.0000     -11.244151      -305.9689
  16   1.0000     -11.237107      -305.7772
  17   1.0000     -10.514727      -286.1203
  18   1.0000     -10.512846      -286.0691
  19   1.0000     -10.511627      -286.0359
  20   1.0000      -7.980637      -217.1642
  21   1.0000      -7.979937      -217.1451
  22   1.0000      -7.979880      -217.1436
  23   1.0000      -7.978720      -217.1120
  24   1.0000      -7.978082      -217.0947
  25   1.0000      -7.977981      -217.0919
  26   1.0000      -7.977616      -217.0820
  27   1.0000      -7.976770      -217.0589
  28   1.0000      -7.976686      -217.0567
  29   1.0000      -4.151741      -112.9746
  30   1.0000      -2.673317       -72.7447
  31   1.0000      -2.673262       -72.7432
  32   1.0000      -2.672871       -72.7325
  33   1.0000      -1.444288       -39.3011
  34   1.0000      -1.136950       -30.9380
  35   1.0000      -1.096410       -29.8348
  36   1.0000      -1.047421       -28.5018
  37   1.0000      -1.035104       -28.1666
  38   1.0000      -1.033253       -28.1162
  39   1.0000      -1.025288       -27.8995
  40   1.0000      -1.009423       -27.4678
  41   1.0000      -0.965831       -26.2816
  42   1.0000      -0.905367       -24.6363
  43   1.0000      -0.821407       -22.3516
  44   1.0000      -0.737404       -20.0658
  45   1.0000      -0.709059       -19.2945
  46   1.0000      -0.698744       -19.0138
  47   1.0000      -0.689386       -18.7591
  48   1.0000      -0.661294       -17.9947
  49   1.0000      -0.628508       -17.1026
  50   1.0000      -0.620229       -16.8773
  51   1.0000      -0.602714       -16.4007
  52   1.0000      -0.600687       -16.3455
  53   1.0000      -0.583950       -15.8901
  54   1.0000      -0.578334       -15.7373
  55   1.0000      -0.561727       -15.2854
  56   1.0000      -0.559788       -15.2326
  57   1.0000      -0.550229       -14.9725
  58   1.0000      -0.543097       -14.7784
  59   1.0000      -0.533433       -14.5155
  60   1.0000      -0.518185       -14.1005
  61   1.0000      -0.501954       -13.6589
  62   1.0000      -0.497108       -13.5270
  63   1.0000      -0.481001       -13.0887
  64   1.0000      -0.479884       -13.0583
  65   1.0000      -0.450758       -12.2658
  66   1.0000      -0.447622       -12.1804
  67   1.0000      -0.445181       -12.1140
  68   1.0000      -0.429603       -11.6901
  69   1.0000      -0.426348       -11.6015
  70   1.0000      -0.410926       -11.1819
  71   1.0000      -0.361772        -9.8443
  72   0.0000       0.012561         0.3418
  73   0.0000       0.023491         0.6392
  74   0.0000       0.023672         0.6441
  75   0.0000       0.030366         0.8263
  76   0.0000       0.039420         1.0727

E(0)                                       ...  -3028.445193639
E(0)                                       ...  -3028.445193639
E(CORR)(strong-pairs)                      ...     -2.870308120
E(CORR)(weak-pairs)                        ...     -0.036447227
E(CORR)(corrected)                         ...     -2.906755347
E(TOT)                                     ...  -3031.351948986
E(CCSD(T))                                 ...  -3031.470650248
FINAL SINGLE POINT ENERGY     -3031.470650247523

DIPOLE MOMENT
-------------
                                X             Y             Z
Electronic contribution:     43.19562       2.59922       2.22982
Nuclear contribution   :    -46.83075      -3.57436      -2.81807
                        -----------------------------------------
Total Dipole Moment    :     -3.63513      -0.97514      -0.58825
                        -----------------------------------------
Magnitude (a.u.)       :      3.80934
Magnitude (Debye)      :      9.68258

Rotational constants in cm-1:     0.019327     0.010934     0.010303
Rotational constants in MHz :   579.405753   327.794119   308.873140

                             ****ORCA TERMINATED NORMALLY****
TOTAL RUN TIME: 0 days 18 hours 57 minutes 12 seconds 680 msec
