                         Program Version 4.1.2  - RELEASE  -
|  1> ! aug-cc-pVTZ aug-cc-pVTZ/C DLPNO-CCSD(T1) TightSCF NormalPNO UNO MiniPrint AutoAux
|  2> %pal nproc 10 end
|  3> %maxcore 20000
|  4> %mdci
|  5>      density none
|  6> end
|  7>
|  8> * xyz 0 6
|  9>  O     -0.34462900     -0.10902900     -0.44025300
| 10>  C     -1.23079400     -1.08999300     -0.28640100
| 11>  C     -2.57071300     -0.41076100      0.70519200
| 12>  C     -2.87834100      0.73960500     -0.05278100
| 13>  C     -3.90219700      0.70457600     -1.13123100
| 14> Fe      1.47528000      0.17305600     -0.07948700
| 15> Cl      1.76020800      2.22521600     -0.83207800
| 16>  C     -2.11765800      1.97739500      0.11921600
| 17> Cl      2.55139700     -1.42231100     -1.14526300
| 18> Cl      1.73893500      0.05798800      2.11678900
| 19>  H     -3.32263000     -1.19633800      0.61049100
| 20>  H     -2.52221500      2.82474300     -0.43653400
| 21>  H     -1.93487300      2.23672400      1.16518500
| 22>  H     -1.11386500      1.71767700     -0.28954800
| 23>  H     -4.72960500      1.36064000     -0.82080700
| 24>  H     -3.51045800      1.13525400     -2.06123100
| 25>  H     -4.30352300     -0.29217700     -1.31748700
| 26>  C     -2.05854200     -0.20782300      2.12986400
| 27>  H     -2.73142000      0.45860000      2.68007400
| 28>  H     -2.02834600     -1.15908300      2.66303300
| 29>  H     -1.05369200      0.22002500      2.14718400
| 30>  C     -0.74126400     -2.26749300      0.56475400
| 31>  H     -1.54553700     -2.97398700      0.78901700
| 32>  H      0.02080300     -2.78109400     -0.03242700
| 33>  H     -0.26675000     -1.93507400      1.48739800
| 34>  C     -1.78873700     -1.57347900     -1.62546200
| 35>  H     -0.98756100     -2.13169400     -2.12063200
| 36>  H     -2.64935700     -2.23921700     -1.50633400
| 37>  H     -2.05092200     -0.73954600     -2.27820600
| 38> *
| 39>
| 40>
| 41>                          ****END OF INPUT****

CARTESIAN COORDINATES (ANGSTROEM)
---------------------------------
  O     -0.344629   -0.109029   -0.440253
  C     -1.230794   -1.089993   -0.286401
  C     -2.570713   -0.410761    0.705192
  C     -2.878341    0.739605   -0.052781
  C     -3.902197    0.704576   -1.131231
  Fe     1.475280    0.173056   -0.079487
  Cl     1.760208    2.225216   -0.832078
  C     -2.117658    1.977395    0.119216
  Cl     2.551397   -1.422311   -1.145263
  Cl     1.738935    0.057988    2.116789
  H     -3.322630   -1.196338    0.610491
  H     -2.522215    2.824743   -0.436534
  H     -1.934873    2.236724    1.165185
  H     -1.113865    1.717677   -0.289548
  H     -4.729605    1.360640   -0.820807
  H     -3.510458    1.135254   -2.061231
  H     -4.303523   -0.292177   -1.317487
  C     -2.058542   -0.207823    2.129864
  H     -2.731420    0.458600    2.680074
  H     -2.028346   -1.159083    2.663033
  H     -1.053692    0.220025    2.147184
  C     -0.741264   -2.267493    0.564754
  H     -1.545537   -2.973987    0.789017
  H      0.020803   -2.781094   -0.032427
  H     -0.266750   -1.935074    1.487398
  C     -1.788737   -1.573479   -1.625462
  H     -0.987561   -2.131694   -2.120632
  H     -2.649357   -2.239217   -1.506334
  H     -2.050922   -0.739546   -2.278206

ORBITAL ENERGIES
----------------
                 SPIN UP ORBITALS
  NO   OCC          E(Eh)            E(eV)
   0   1.0000    -261.544009     -7116.9743
   1   1.0000    -104.770965     -2850.9629
   2   1.0000    -104.769526     -2850.9237
   3   1.0000    -104.768264     -2850.8894
   4   1.0000     -32.211933      -876.5313
   5   1.0000     -27.687870      -753.4253
   6   1.0000     -27.687606      -753.4181
   7   1.0000     -27.687382      -753.4120
   8   1.0000     -20.544841      -559.0536
   9   1.0000     -11.383096      -309.7498
  10   1.0000     -11.364015      -309.2306
  11   1.0000     -11.298620      -307.4511
  12   1.0000     -11.287070      -307.1368
  13   1.0000     -11.270878      -306.6962
  14   1.0000     -11.252876      -306.2063
  15   1.0000     -11.248597      -306.0899
  16   1.0000     -11.239912      -305.8536
  17   1.0000     -10.497569      -285.6534
  18   1.0000     -10.496092      -285.6132
  19   1.0000     -10.494872      -285.5800
  20   1.0000      -7.964443      -216.7235
  21   1.0000      -7.963619      -216.7011
  22   1.0000      -7.963565      -216.6996
  23   1.0000      -7.962919      -216.6820
  24   1.0000      -7.962195      -216.6623
  25   1.0000      -7.962100      -216.6598
  26   1.0000      -7.961708      -216.6491
  27   1.0000      -7.960973      -216.6291
  28   1.0000      -7.960895      -216.6270
  29   1.0000      -4.567372      -124.2845
  30   1.0000      -3.179938       -86.5305
  31   1.0000      -3.179476       -86.5180
  32   1.0000      -3.178943       -86.5034
  33   1.0000      -1.383405       -37.6444
  34   1.0000      -1.194265       -32.4976
  35   1.0000      -1.083725       -29.4896
  36   1.0000      -1.046312       -28.4716
  37   1.0000      -1.042102       -28.3570
  38   1.0000      -1.036820       -28.2133
  39   1.0000      -1.035001       -28.1638
  40   1.0000      -1.014637       -27.6097
  41   1.0000      -0.972894       -26.4738
  42   1.0000      -0.932187       -25.3661
  43   1.0000      -0.910104       -24.7652
  44   1.0000      -0.896898       -24.4058
  45   1.0000      -0.896846       -24.4044
  46   1.0000      -0.888189       -24.1689
  47   1.0000      -0.887838       -24.1593
  48   1.0000      -0.793290       -21.5865
  49   1.0000      -0.769741       -20.9457
  50   1.0000      -0.707736       -19.2585
  51   1.0000      -0.695528       -18.9263
  52   1.0000      -0.672411       -18.2972
  53   1.0000      -0.655026       -17.8242
  54   1.0000      -0.650423       -17.6989
  55   1.0000      -0.632169       -17.2022
  56   1.0000      -0.604225       -16.4418
  57   1.0000      -0.600902       -16.3514
  58   1.0000      -0.591425       -16.0935
  59   1.0000      -0.583246       -15.8709
  60   1.0000      -0.573341       -15.6014
  61   1.0000      -0.562895       -15.3172
  62   1.0000      -0.557408       -15.1678
  63   1.0000      -0.538481       -14.6528
  64   1.0000      -0.535168       -14.5627
  65   1.0000      -0.518729       -14.1153
  66   1.0000      -0.505355       -13.7514
  67   1.0000      -0.467840       -12.7306
  68   1.0000      -0.458918       -12.4878
  69   1.0000      -0.444150       -12.0859
  70   1.0000      -0.426644       -11.6096
  71   1.0000      -0.421619       -11.4728
  72   1.0000      -0.417777       -11.3683
  73   1.0000      -0.410377       -11.1669
  74   1.0000      -0.408279       -11.1098
  75   1.0000      -0.407704       -11.0942
  76   1.0000      -0.403451       -10.9785
  77   0.0000       0.003428         0.0933
  78   0.0000       0.006741         0.1834
  79   0.0000       0.018096         0.4924
  80   0.0000       0.019195         0.5223
  81   0.0000       0.028244         0.7686

                 SPIN DOWN ORBITALS
  NO   OCC          E(Eh)            E(eV)
   0   1.0000    -261.540459     -7116.8777
   1   1.0000    -104.769592     -2850.9255
   2   1.0000    -104.768159     -2850.8865
   3   1.0000    -104.766837     -2850.8506
   4   1.0000     -32.049871      -872.1213
   5   1.0000     -27.527928      -749.0730
   6   1.0000     -27.527771      -749.0687
   7   1.0000     -27.527323      -749.0565
   8   1.0000     -20.539389      -558.9052
   9   1.0000     -11.383026      -309.7479
  10   1.0000     -11.363954      -309.2289
  11   1.0000     -11.298632      -307.4514
  12   1.0000     -11.286911      -307.1325
  13   1.0000     -11.270899      -306.6968
  14   1.0000     -11.252904      -306.2071
  15   1.0000     -11.248493      -306.0870
  16   1.0000     -11.239879      -305.8527
  17   1.0000     -10.496093      -285.6132
  18   1.0000     -10.494627      -285.5733
  19   1.0000     -10.493343      -285.5384
  20   1.0000      -7.961981      -216.6565
  21   1.0000      -7.961430      -216.6415
  22   1.0000      -7.961353      -216.6394
  23   1.0000      -7.960585      -216.6185
  24   1.0000      -7.959940      -216.6010
  25   1.0000      -7.959835      -216.5981
  26   1.0000      -7.959291      -216.5833
  27   1.0000      -7.958606      -216.5647
  28   1.0000      -7.958528      -216.5626
  29   1.0000      -4.125113      -112.2500
  30   1.0000      -2.646965       -72.0276
  31   1.0000      -2.646897       -72.0257
  32   1.0000      -2.646014       -72.0017
  33   1.0000      -1.369500       -37.2660
  34   1.0000      -1.193311       -32.4717
  35   1.0000      -1.081221       -29.4215
  36   1.0000      -1.045328       -28.4448
  37   1.0000      -1.027749       -27.9665
  38   1.0000      -1.016576       -27.6624
  39   1.0000      -1.014862       -27.6158
  40   1.0000      -1.014009       -27.5926
  41   1.0000      -0.972164       -26.4539
  42   1.0000      -0.931415       -25.3451
  43   1.0000      -0.801041       -21.7974
  44   1.0000      -0.775238       -21.0953
  45   1.0000      -0.708320       -19.2744
  46   1.0000      -0.694761       -18.9054
  47   1.0000      -0.672556       -18.3012
  48   1.0000      -0.657498       -17.8914
  49   1.0000      -0.648821       -17.6553
  50   1.0000      -0.631450       -17.1826
  51   1.0000      -0.604433       -16.4475
  52   1.0000      -0.600765       -16.3476
  53   1.0000      -0.590186       -16.0598
  54   1.0000      -0.583146       -15.8682
  55   1.0000      -0.572439       -15.5769
  56   1.0000      -0.562526       -15.3071
  57   1.0000      -0.557341       -15.1660
  58   1.0000      -0.537729       -14.6323
  59   1.0000      -0.534381       -14.5412
  60   1.0000      -0.513917       -13.9844
  61   1.0000      -0.498573       -13.5669
  62   1.0000      -0.466105       -12.6834
  63   1.0000      -0.461642       -12.5619
  64   1.0000      -0.451913       -12.2972
  65   1.0000      -0.432451       -11.7676
  66   1.0000      -0.430130       -11.7044
  67   1.0000      -0.428089       -11.6489
  68   1.0000      -0.426339       -11.6013
  69   1.0000      -0.407367       -11.0850
  70   1.0000      -0.394953       -10.7472
  71   1.0000      -0.394119       -10.7245
  72   0.0000       0.003443         0.0937
  73   0.0000       0.006618         0.1801
  74   0.0000       0.018094         0.4924
  75   0.0000       0.019176         0.5218
  76   0.0000       0.028252         0.7688

E(0)                                       ...  -3028.425621630
E(0)                                       ...  -3028.425621630
E(CORR)(strong-pairs)                      ...     -2.874715101
E(CORR)(weak-pairs)                        ...     -0.035563024
E(CORR)(corrected)                         ...     -2.910278125
E(TOT)                                     ...  -3031.335899756
E(CCSD(T))                                 ...  -3031.455550226
FINAL SINGLE POINT ENERGY     -3031.455550226466

DIPOLE MOMENT
-------------
                                X             Y             Z
Electronic contribution:     41.72678       6.88556      -0.87414
Nuclear contribution   :    -47.24770      -7.12051       0.74851
                        -----------------------------------------
Total Dipole Moment    :     -5.52092      -0.23495      -0.12562
                        -----------------------------------------
Magnitude (a.u.)       :      5.52734
Magnitude (Debye)      :     14.04939

Rotational constants in cm-1:     0.019638     0.010634     0.010115
Rotational constants in MHz :   588.741595   318.795040   303.227759

                             ****ORCA TERMINATED NORMALLY****
TOTAL RUN TIME: 0 days 22 hours 20 minutes 27 seconds 958 msec
