                         Program Version 4.1.2  - RELEASE  -
|  1> ! aug-cc-pVTZ aug-cc-pVTZ/C DLPNO-CCSD(T1) TightSCF NormalPNO UNO MiniPrint AutoAux
|  2> %pal nproc 10 end
|  3> %maxcore 20000
|  4> %mdci
|  5>      density none
|  6> end
|  7>
|  8> * xyz 0 6
|  9>  O     -0.32360800     -0.12119000     -0.62146800
| 10>  C     -1.21133400     -1.04802800     -0.54962500
| 11>  C     -3.11932700     -0.01979200      0.05435100
| 12>  C     -2.31484200      1.05262800     -0.19761900
| 13>  C     -2.24662200      1.68320500     -1.55281200
| 14> Fe      1.45503400      0.06911000      0.05112600
| 15> Cl      2.07385100      2.00408700     -0.76732600
| 16>  C     -1.56535800      1.77558900      0.87789900
| 17> Cl      2.45872300     -1.71591300     -0.74651000
| 18> Cl      1.36065400      0.03910100      2.25393600
| 19>  H     -3.72876800     -0.38076900     -0.77120700
| 20>  H     -2.22857300      2.55091400      1.28813600
| 21>  H     -1.25819200      1.13401300      1.70445900
| 22>  H     -0.68154100      2.27822900      0.47770500
| 23>  H     -2.59044700      2.72246100     -1.46489000
| 24>  H     -1.21101000      1.72031500     -1.90618100
| 25>  H     -2.87772700      1.18109300     -2.28974500
| 26>  C     -3.56550900     -0.47027100      1.42068900
| 27>  H     -4.48081400      0.06939000      1.69843500
| 28>  H     -3.80934600     -1.53649100      1.43736000
| 29>  H     -2.82543700     -0.27625100      2.20008400
| 30>  C     -1.13085400     -2.01848600      0.59562600
| 31>  H     -2.00528000     -2.66564300      0.66518700
| 32>  H     -0.25369700     -2.64615800      0.37822500
| 33>  H     -0.93795100     -1.51758800      1.54449500
| 34>  C     -1.70837200     -1.58910800     -1.86570900
| 35>  H     -0.88748100     -2.21091600     -2.25061200
| 36>  H     -2.59649100     -2.21415500     -1.75668000
| 37>  H     -1.88081600     -0.79386900     -2.59082100
| 38> *
| 39>
| 40>
| 41>                          ****END OF INPUT****

CARTESIAN COORDINATES (ANGSTROEM)
---------------------------------
  O     -0.323608   -0.121190   -0.621468
  C     -1.211334   -1.048028   -0.549625
  C     -3.119327   -0.019792    0.054351
  C     -2.314842    1.052628   -0.197619
  C     -2.246622    1.683205   -1.552812
  Fe     1.455034    0.069110    0.051126
  Cl     2.073851    2.004087   -0.767326
  C     -1.565358    1.775589    0.877899
  Cl     2.458723   -1.715913   -0.746510
  Cl     1.360654    0.039101    2.253936
  H     -3.728768   -0.380769   -0.771207
  H     -2.228573    2.550914    1.288136
  H     -1.258192    1.134013    1.704459
  H     -0.681541    2.278229    0.477705
  H     -2.590447    2.722461   -1.464890
  H     -1.211010    1.720315   -1.906181
  H     -2.877727    1.181093   -2.289745
  C     -3.565509   -0.470271    1.420689
  H     -4.480814    0.069390    1.698435
  H     -3.809346   -1.536491    1.437360
  H     -2.825437   -0.276251    2.200084
  C     -1.130854   -2.018486    0.595626
  H     -2.005280   -2.665643    0.665187
  H     -0.253697   -2.646158    0.378225
  H     -0.937951   -1.517588    1.544495
  C     -1.708372   -1.589108   -1.865709
  H     -0.887481   -2.210916   -2.250612
  H     -2.596491   -2.214155   -1.756680
  H     -1.880816   -0.793869   -2.590821

ORBITAL ENERGIES
----------------
                 SPIN UP ORBITALS
  NO   OCC          E(Eh)            E(eV)
   0   1.0000    -261.563954     -7117.5170
   1   1.0000    -104.784856     -2851.3409
   2   1.0000    -104.783227     -2851.2966
   3   1.0000    -104.782568     -2851.2786
   4   1.0000     -32.231772      -877.0711
   5   1.0000     -27.708013      -753.9734
   6   1.0000     -27.707247      -753.9525
   7   1.0000     -27.707107      -753.9487
   8   1.0000     -20.582335      -560.0738
   9   1.0000     -11.414713      -310.6101
  10   1.0000     -11.309787      -307.7550
  11   1.0000     -11.269569      -306.6606
  12   1.0000     -11.264387      -306.5196
  13   1.0000     -11.261171      -306.4320
  14   1.0000     -11.252890      -306.2067
  15   1.0000     -11.252298      -306.1906
  16   1.0000     -11.246006      -306.0194
  17   1.0000     -10.511509      -286.0327
  18   1.0000     -10.509827      -285.9869
  19   1.0000     -10.509139      -285.9682
  20   1.0000      -7.978372      -217.1025
  21   1.0000      -7.977569      -217.0807
  22   1.0000      -7.977530      -217.0796
  23   1.0000      -7.976695      -217.0569
  24   1.0000      -7.975939      -217.0363
  25   1.0000      -7.975925      -217.0359
  26   1.0000      -7.975839      -217.0336
  27   1.0000      -7.975256      -217.0178
  28   1.0000      -7.975184      -217.0158
  29   1.0000      -4.587001      -124.8186
  30   1.0000      -3.199987       -87.0761
  31   1.0000      -3.198701       -87.0411
  32   1.0000      -3.198379       -87.0323
  33   1.0000      -1.435931       -39.0737
  34   1.0000      -1.151716       -31.3398
  35   1.0000      -1.093616       -29.7588
  36   1.0000      -1.057441       -28.7744
  37   1.0000      -1.052054       -28.6278
  38   1.0000      -1.050091       -28.5744
  39   1.0000      -1.032647       -28.0998
  40   1.0000      -1.004261       -27.3273
  41   1.0000      -0.975848       -26.5542
  42   1.0000      -0.933662       -25.4062
  43   1.0000      -0.916417       -24.9370
  44   1.0000      -0.916289       -24.9335
  45   1.0000      -0.914664       -24.8893
  46   1.0000      -0.906238       -24.6600
  47   1.0000      -0.906004       -24.6536
  48   1.0000      -0.799365       -21.7518
  49   1.0000      -0.747846       -20.3499
  50   1.0000      -0.698650       -19.0112
  51   1.0000      -0.694604       -18.9011
  52   1.0000      -0.686694       -18.6859
  53   1.0000      -0.667513       -18.1639
  54   1.0000      -0.636846       -17.3295
  55   1.0000      -0.619821       -16.8662
  56   1.0000      -0.603113       -16.4115
  57   1.0000      -0.599039       -16.3007
  58   1.0000      -0.582618       -15.8538
  59   1.0000      -0.576486       -15.6870
  60   1.0000      -0.569182       -15.4882
  61   1.0000      -0.565318       -15.3831
  62   1.0000      -0.550255       -14.9732
  63   1.0000      -0.548346       -14.9213
  64   1.0000      -0.541666       -14.7395
  65   1.0000      -0.521783       -14.1984
  66   1.0000      -0.512678       -13.9507
  67   1.0000      -0.490435       -13.3454
  68   1.0000      -0.471012       -12.8169
  69   1.0000      -0.464064       -12.6278
  70   1.0000      -0.438823       -11.9410
  71   1.0000      -0.433349       -11.7920
  72   1.0000      -0.431877       -11.7520
  73   1.0000      -0.423603       -11.5268
  74   1.0000      -0.421809       -11.4780
  75   1.0000      -0.421542       -11.4707
  76   1.0000      -0.370137       -10.0719
  77   0.0000       0.011688         0.3180
  78   0.0000       0.022299         0.6068
  79   0.0000       0.023098         0.6285
  80   0.0000       0.030295         0.8244
  81   0.0000       0.039125         1.0646

                 SPIN DOWN ORBITALS
  NO   OCC          E(Eh)            E(eV)
   0   1.0000    -261.560397     -7117.4202
   1   1.0000    -104.783413     -2851.3016
   2   1.0000    -104.781746     -2851.2563
   3   1.0000    -104.781111     -2851.2390
   4   1.0000     -32.069744      -872.6621
   5   1.0000     -27.547691      -749.6108
   6   1.0000     -27.547632      -749.6092
   7   1.0000     -27.547352      -749.6016
   8   1.0000     -20.578051      -559.9572
   9   1.0000     -11.414573      -310.6063
  10   1.0000     -11.309811      -307.7556
  11   1.0000     -11.269469      -306.6578
  12   1.0000     -11.264369      -306.5191
  13   1.0000     -11.260919      -306.4252
  14   1.0000     -11.252917      -306.2074
  15   1.0000     -11.252286      -306.1903
  16   1.0000     -11.246025      -306.0199
  17   1.0000     -10.509963      -285.9906
  18   1.0000     -10.508243      -285.9438
  19   1.0000     -10.507586      -285.9259
  20   1.0000      -7.975862      -217.0342
  21   1.0000      -7.975224      -217.0169
  22   1.0000      -7.975157      -217.0150
  23   1.0000      -7.974138      -216.9873
  24   1.0000      -7.973569      -216.9718
  25   1.0000      -7.973494      -216.9698
  26   1.0000      -7.973397      -216.9672
  27   1.0000      -7.972786      -216.9505
  28   1.0000      -7.972697      -216.9481
  29   1.0000      -4.144750      -112.7844
  30   1.0000      -2.666385       -72.5560
  31   1.0000      -2.666331       -72.5545
  32   1.0000      -2.665874       -72.5421
  33   1.0000      -1.425062       -38.7779
  34   1.0000      -1.150990       -31.3200
  35   1.0000      -1.090977       -29.6870
  36   1.0000      -1.042475       -28.3672
  37   1.0000      -1.032247       -28.0889
  38   1.0000      -1.030423       -28.0392
  39   1.0000      -1.028853       -27.9965
  40   1.0000      -1.003443       -27.3051
  41   1.0000      -0.975759       -26.5517
  42   1.0000      -0.915974       -24.9249
  43   1.0000      -0.813391       -22.1335
  44   1.0000      -0.747895       -20.3513
  45   1.0000      -0.700739       -19.0681
  46   1.0000      -0.695544       -18.9267
  47   1.0000      -0.684961       -18.6387
  48   1.0000      -0.667294       -18.1580
  49   1.0000      -0.636768       -17.3273
  50   1.0000      -0.619541       -16.8586
  51   1.0000      -0.602583       -16.3971
  52   1.0000      -0.598988       -16.2993
  53   1.0000      -0.582293       -15.8450
  54   1.0000      -0.576118       -15.6770
  55   1.0000      -0.569011       -15.4836
  56   1.0000      -0.565075       -15.3765
  57   1.0000      -0.549650       -14.9567
  58   1.0000      -0.546274       -14.8649
  59   1.0000      -0.539888       -14.6911
  60   1.0000      -0.513296       -13.9675
  61   1.0000      -0.512635       -13.9495
  62   1.0000      -0.488763       -13.2999
  63   1.0000      -0.475651       -12.9431
  64   1.0000      -0.474461       -12.9107
  65   1.0000      -0.446121       -12.1396
  66   1.0000      -0.443133       -12.0583
  67   1.0000      -0.441015       -12.0006
  68   1.0000      -0.426616       -11.6088
  69   1.0000      -0.421616       -11.4727
  70   1.0000      -0.407227       -11.0812
  71   1.0000      -0.368605       -10.0302
  72   0.0000       0.011681         0.3179
  73   0.0000       0.022270         0.6060
  74   0.0000       0.023072         0.6278
  75   0.0000       0.030307         0.8247
  76   0.0000       0.039095         1.0638

E(0)                                       ...  -3028.431768118
E(0)                                       ...  -3028.431768118
E(CORR)(strong-pairs)                      ...     -2.872407489
E(CORR)(weak-pairs)                        ...     -0.036309281
E(CORR)(corrected)                         ...     -2.908716769
E(TOT)                                     ...  -3031.340484887
E(CCSD(T))                                 ...  -3031.460076492
FINAL SINGLE POINT ENERGY     -3031.460076491563

DIPOLE MOMENT
-------------
                                X             Y             Z
Electronic contribution:     42.49214       2.56192       2.24822
Nuclear contribution   :    -46.49689      -3.19889      -2.79451
                        -----------------------------------------
Total Dipole Moment    :     -4.00474      -0.63697      -0.54629
                        -----------------------------------------
Magnitude (a.u.)       :      4.09172
Magnitude (Debye)      :     10.40031

Rotational constants in cm-1:     0.019459     0.011110     0.010435
Rotational constants in MHz :   583.379930   333.076384   312.845792

                             ****ORCA TERMINATED NORMALLY****
TOTAL RUN TIME: 0 days 19 hours 43 minutes 32 seconds 290 msec
