                         Program Version 4.1.2  - RELEASE  -
|  1> ! aug-cc-pVTZ aug-cc-pVTZ/C DLPNO-CCSD(T1) TightSCF NormalPNO UNO MiniPrint AutoAux
|  2> %pal nproc 10 end
|  3> %maxcore 20000
|  4> %mdci
|  5>      density none
|  6> end
|  7>
|  8> * xyz 0 6
|  9>  O     -0.40258600     -0.14792500     -0.48327100
| 10>  C     -1.33820200     -1.19889000     -0.38964200
| 11>  C     -2.91497900     -0.07353000     -0.16640200
| 12>  C     -2.02623900      1.08779900     -0.28510700
| 13>  C     -1.88391600      1.76755600     -1.59967000
| 14> Fe      1.38770600      0.05528900      0.04964400
| 15> Cl      1.86567600      2.02483300     -0.83492700
| 16>  C     -1.58249700      1.84089900      0.91694400
| 17> Cl      2.45226400     -1.69923100     -0.73541300
| 18> Cl      1.36577100      0.13451100      2.26306500
| 19>  H     -3.50294600     -0.24048500     -1.06916600
| 20>  H     -2.42512100      2.48757400      1.21047600
| 21>  H     -1.35275000      1.19105000      1.76176900
| 22>  H     -0.71948400      2.47256500      0.69885600
| 23>  H     -2.64178500      2.56759600     -1.62223000
| 24>  H     -0.89763000      2.22555300     -1.70474500
| 25>  H     -2.08234400      1.09461500     -2.43554300
| 26>  C     -3.68252200     -0.32394000      1.11283100
| 27>  H     -4.49143700      0.40683400      1.24203500
| 28>  H     -4.14237500     -1.31633100      1.08249800
| 29>  H     -3.04859000     -0.27893200      2.00151000
| 30>  C     -1.16593700     -2.06527400      0.82683400
| 31>  H     -1.98654400     -2.78121000      0.92777300
| 32>  H     -0.23121000     -2.63021800      0.70526600
| 33>  H     -1.07035700     -1.47446300      1.73920700
| 34>  C     -1.47715800     -1.93769800     -1.69445900
| 35>  H     -0.52244800     -2.44278100     -1.89413700
| 36>  H     -2.27244600     -2.68787700     -1.64922100
| 37>  H     -1.66657400     -1.25106100     -2.52321700
| 38> *
| 39>
| 40>
| 41>                          ****END OF INPUT****

CARTESIAN COORDINATES (ANGSTROEM)
---------------------------------
  O     -0.402586   -0.147925   -0.483271
  C     -1.338202   -1.198890   -0.389642
  C     -2.914979   -0.073530   -0.166402
  C     -2.026239    1.087799   -0.285107
  C     -1.883916    1.767556   -1.599670
  Fe     1.387706    0.055289    0.049644
  Cl     1.865676    2.024833   -0.834927
  C     -1.582497    1.840899    0.916944
  Cl     2.452264   -1.699231   -0.735413
  Cl     1.365771    0.134511    2.263065
  H     -3.502946   -0.240485   -1.069166
  H     -2.425121    2.487574    1.210476
  H     -1.352750    1.191050    1.761769
  H     -0.719484    2.472565    0.698856
  H     -2.641785    2.567596   -1.622230
  H     -0.897630    2.225553   -1.704745
  H     -2.082344    1.094615   -2.435543
  C     -3.682522   -0.323940    1.112831
  H     -4.491437    0.406834    1.242035
  H     -4.142375   -1.316331    1.082498
  H     -3.048590   -0.278932    2.001510
  C     -1.165937   -2.065274    0.826834
  H     -1.986544   -2.781210    0.927773
  H     -0.231210   -2.630218    0.705266
  H     -1.070357   -1.474463    1.739207
  C     -1.477158   -1.937698   -1.694459
  H     -0.522448   -2.442781   -1.894137
  H     -2.272446   -2.687877   -1.649221
  H     -1.666574   -1.251061   -2.523217

ORBITAL ENERGIES
----------------
                 SPIN UP ORBITALS
  NO   OCC          E(Eh)            E(eV)
   0   1.0000    -261.551977     -7117.1911
   1   1.0000    -104.778797     -2851.1760
   2   1.0000    -104.776739     -2851.1200
   3   1.0000    -104.776523     -2851.1141
   4   1.0000     -32.219877      -876.7474
   5   1.0000     -27.695814      -753.6414
   6   1.0000     -27.695565      -753.6346
   7   1.0000     -27.695312      -753.6278
   8   1.0000     -20.560674      -559.4844
   9   1.0000     -11.393125      -310.0227
  10   1.0000     -11.368198      -309.3444
  11   1.0000     -11.282069      -307.0007
  12   1.0000     -11.273309      -306.7623
  13   1.0000     -11.270530      -306.6867
  14   1.0000     -11.258754      -306.3663
  15   1.0000     -11.246391      -306.0299
  16   1.0000     -11.243287      -305.9454
  17   1.0000     -10.505345      -285.8650
  18   1.0000     -10.503348      -285.8106
  19   1.0000     -10.503104      -285.8040
  20   1.0000      -7.972159      -216.9335
  21   1.0000      -7.971432      -216.9137
  22   1.0000      -7.971362      -216.9118
  23   1.0000      -7.970236      -216.8812
  24   1.0000      -7.969908      -216.8722
  25   1.0000      -7.969401      -216.8584
  26   1.0000      -7.969350      -216.8570
  27   1.0000      -7.969212      -216.8533
  28   1.0000      -7.969143      -216.8514
  29   1.0000      -4.575273      -124.4995
  30   1.0000      -3.187785       -86.7440
  31   1.0000      -3.187411       -86.7339
  32   1.0000      -3.186800       -86.7172
  33   1.0000      -1.372560       -37.3493
  34   1.0000      -1.166055       -31.7300
  35   1.0000      -1.083282       -29.4776
  36   1.0000      -1.050216       -28.5778
  37   1.0000      -1.044157       -28.4130
  38   1.0000      -1.043319       -28.3902
  39   1.0000      -1.039399       -28.2835
  40   1.0000      -1.006312       -27.3831
  41   1.0000      -0.975211       -26.5368
  42   1.0000      -0.927390       -25.2356
  43   1.0000      -0.907640       -24.6981
  44   1.0000      -0.904838       -24.6219
  45   1.0000      -0.904290       -24.6070
  46   1.0000      -0.896294       -24.3894
  47   1.0000      -0.895657       -24.3721
  48   1.0000      -0.786159       -21.3925
  49   1.0000      -0.760008       -20.6809
  50   1.0000      -0.693294       -18.8655
  51   1.0000      -0.687368       -18.7042
  52   1.0000      -0.669052       -18.2058
  53   1.0000      -0.644759       -17.5448
  54   1.0000      -0.633186       -17.2299
  55   1.0000      -0.624026       -16.9806
  56   1.0000      -0.597382       -16.2556
  57   1.0000      -0.593501       -16.1500
  58   1.0000      -0.588910       -16.0250
  59   1.0000      -0.581409       -15.8209
  60   1.0000      -0.572113       -15.5680
  61   1.0000      -0.561763       -15.2863
  62   1.0000      -0.549679       -14.9575
  63   1.0000      -0.541544       -14.7362
  64   1.0000      -0.534966       -14.5572
  65   1.0000      -0.529482       -14.4079
  66   1.0000      -0.508768       -13.8443
  67   1.0000      -0.483085       -13.1454
  68   1.0000      -0.464982       -12.6528
  69   1.0000      -0.453937       -12.3523
  70   1.0000      -0.433537       -11.7971
  71   1.0000      -0.428101       -11.6492
  72   1.0000      -0.424908       -11.5623
  73   1.0000      -0.418977       -11.4009
  74   1.0000      -0.416208       -11.3256
  75   1.0000      -0.415266       -11.3000
  76   1.0000      -0.382441       -10.4068
  77   0.0000       0.009293         0.2529
  78   0.0000       0.020559         0.5594
  79   0.0000       0.022880         0.6226
  80   0.0000       0.030953         0.8423
  81   0.0000       0.037599         1.0231

                 SPIN DOWN ORBITALS
  NO   OCC          E(Eh)            E(eV)
   0   1.0000    -261.548426     -7117.0945
   1   1.0000    -104.777456     -2851.1395
   2   1.0000    -104.775347     -2851.0821
   3   1.0000    -104.775081     -2851.0749
   4   1.0000     -32.057914      -872.3402
   5   1.0000     -27.535940      -749.2910
   6   1.0000     -27.535787      -749.2869
   7   1.0000     -27.535379      -749.2757
   8   1.0000     -20.555268      -559.3373
   9   1.0000     -11.393175      -310.0240
  10   1.0000     -11.368239      -309.3455
  11   1.0000     -11.281658      -306.9895
  12   1.0000     -11.273288      -306.7618
  13   1.0000     -11.270540      -306.6870
  14   1.0000     -11.258785      -306.3671
  15   1.0000     -11.246329      -306.0282
  16   1.0000     -11.243259      -305.9446
  17   1.0000     -10.503908      -285.8259
  18   1.0000     -10.501852      -285.7699
  19   1.0000     -10.501562      -285.7620
  20   1.0000      -7.969874      -216.8713
  21   1.0000      -7.969221      -216.8535
  22   1.0000      -7.969147      -216.8515
  23   1.0000      -7.967742      -216.8133
  24   1.0000      -7.967532      -216.8076
  25   1.0000      -7.967179      -216.7980
  26   1.0000      -7.967106      -216.7960
  27   1.0000      -7.966780      -216.7871
  28   1.0000      -7.966722      -216.7855
  29   1.0000      -4.133208      -112.4703
  30   1.0000      -2.655081       -72.2484
  31   1.0000      -2.654909       -72.2437
  32   1.0000      -2.654202       -72.2245
  33   1.0000      -1.358428       -36.9647
  34   1.0000      -1.164736       -31.6941
  35   1.0000      -1.080489       -29.4016
  36   1.0000      -1.038623       -28.2624
  37   1.0000      -1.035430       -28.1755
  38   1.0000      -1.024432       -27.8762
  39   1.0000      -1.022878       -27.8339
  40   1.0000      -1.006008       -27.3749
  41   1.0000      -0.974689       -26.5226
  42   1.0000      -0.920792       -25.0560
  43   1.0000      -0.791821       -21.5465
  44   1.0000      -0.763308       -20.7707
  45   1.0000      -0.693446       -18.8696
  46   1.0000      -0.687012       -18.6945
  47   1.0000      -0.669863       -18.2279
  48   1.0000      -0.645769       -17.5723
  49   1.0000      -0.631432       -17.1821
  50   1.0000      -0.624242       -16.9865
  51   1.0000      -0.596345       -16.2274
  52   1.0000      -0.593545       -16.1512
  53   1.0000      -0.588864       -16.0238
  54   1.0000      -0.579636       -15.7727
  55   1.0000      -0.571984       -15.5645
  56   1.0000      -0.561798       -15.2873
  57   1.0000      -0.548006       -14.9120
  58   1.0000      -0.540918       -14.7191
  59   1.0000      -0.534188       -14.5360
  60   1.0000      -0.524125       -14.2622
  61   1.0000      -0.505322       -13.7505
  62   1.0000      -0.478812       -13.0291
  63   1.0000      -0.469254       -12.7691
  64   1.0000      -0.464532       -12.6405
  65   1.0000      -0.439546       -11.9607
  66   1.0000      -0.437034       -11.8923
  67   1.0000      -0.434913       -11.8346
  68   1.0000      -0.423418       -11.5218
  69   1.0000      -0.414097       -11.2682
  70   1.0000      -0.402462       -10.9516
  71   1.0000      -0.382069       -10.3966
  72   0.0000       0.009275         0.2524
  73   0.0000       0.020445         0.5563
  74   0.0000       0.022860         0.6221
  75   0.0000       0.031000         0.8435
  76   0.0000       0.037500         1.0204

E(0)                                       ...  -3028.414536312
E(0)                                       ...  -3028.414536312
E(CORR)(strong-pairs)                      ...     -2.873571818
E(CORR)(weak-pairs)                        ...     -0.036257913
E(CORR)(corrected)                         ...     -2.909829731
E(TOT)                                     ...  -3031.324366043
E(CCSD(T))                                 ...  -3031.444018035
FINAL SINGLE POINT ENERGY     -3031.444018035003

DIPOLE MOMENT
-------------
                                X             Y             Z
Electronic contribution:     40.39161       3.62196       2.12822
Nuclear contribution   :    -44.80529      -3.40098      -2.61837
                        -----------------------------------------
Total Dipole Moment    :     -4.41368       0.22099      -0.49015
                        -----------------------------------------
Magnitude (a.u.)       :      4.44631
Magnitude (Debye)      :     11.30162

Rotational constants in cm-1:     0.018954     0.011851     0.010760
Rotational constants in MHz :   568.241294   355.271603   322.586430

                             ****ORCA TERMINATED NORMALLY****
TOTAL RUN TIME: 0 days 20 hours 53 minutes 26 seconds 681 msec
