                         Program Version 4.1.2  - RELEASE  -
|  1> ! aug-cc-pVTZ aug-cc-pVTZ/C DLPNO-CCSD(T1) TightSCF NormalPNO UNO MiniPrint AutoAux
|  2> %pal nproc 10 end
|  3> %maxcore 20000
|  4> %mdci
|  5>      density none
|  6> end
|  7>
|  8> * xyz 0 6
|  9>  O     -0.34075100     -0.10232800     -0.54855600
| 10>  C     -1.26504000     -1.03001500     -0.48587200
| 11>  C     -3.06086900     -0.02380400     -0.07049900
| 12>  C     -2.23147700      1.06991500     -0.21161500
| 13>  C     -2.05775600      1.75253000     -1.52708400
| 14> Fe      1.44082500      0.05332500      0.04940200
| 15> Cl      2.02014700      2.00836700     -0.77700200
| 16>  C     -1.59248800      1.74419200      0.95797300
| 17> Cl      2.43805600     -1.72922400     -0.76997100
| 18> Cl      1.39162800      0.03600100      2.26014400
| 19>  H     -3.62282400     -0.31331900     -0.95554600
| 20>  H     -2.32944100      2.44862700      1.37222300
| 21>  H     -1.31333800      1.05474800      1.75567100
| 22>  H     -0.70965000      2.31270400      0.65943500
| 23>  H     -2.55108200      2.73251700     -1.45067000
| 24>  H     -0.99983900      1.93555600     -1.73399000
| 25>  H     -2.51879000      1.20960900     -2.35460800
| 26>  C     -3.67304700     -0.46309000      1.23685900
| 27>  H     -4.58571700      0.11747300      1.42458800
| 28>  H     -3.96466000     -1.51667400      1.20720000
| 29>  H     -3.01042400     -0.31678500      2.09220700
| 30>  C     -1.18287600     -1.98428500      0.67748100
| 31>  H     -2.04200100     -2.65314100      0.74099100
| 32>  H     -0.28582200     -2.59184400      0.48880600
| 33>  H     -1.02214300     -1.46564900      1.62311000
| 34>  C     -1.63284100     -1.64249800     -1.81686800
| 35>  H     -0.75860300     -2.23543400     -2.11949900
| 36>  H     -2.50169700     -2.30124100     -1.75058100
| 37>  H     -1.78819400     -0.88009900     -2.58152400
| 38> *
| 39>
| 40>
| 41>                          ****END OF INPUT****

CARTESIAN COORDINATES (ANGSTROEM)
---------------------------------
  O     -0.340751   -0.102328   -0.548556
  C     -1.265040   -1.030015   -0.485872
  C     -3.060869   -0.023804   -0.070499
  C     -2.231477    1.069915   -0.211615
  C     -2.057756    1.752530   -1.527084
  Fe     1.440825    0.053325    0.049402
  Cl     2.020147    2.008367   -0.777002
  C     -1.592488    1.744192    0.957973
  Cl     2.438056   -1.729224   -0.769971
  Cl     1.391628    0.036001    2.260144
  H     -3.622824   -0.313319   -0.955546
  H     -2.329441    2.448627    1.372223
  H     -1.313338    1.054748    1.755671
  H     -0.709650    2.312704    0.659435
  H     -2.551082    2.732517   -1.450670
  H     -0.999839    1.935556   -1.733990
  H     -2.518790    1.209609   -2.354608
  C     -3.673047   -0.463090    1.236859
  H     -4.585717    0.117473    1.424588
  H     -3.964660   -1.516674    1.207200
  H     -3.010424   -0.316785    2.092207
  C     -1.182876   -1.984285    0.677481
  H     -2.042001   -2.653141    0.740991
  H     -0.285822   -2.591844    0.488806
  H     -1.022143   -1.465649    1.623110
  C     -1.632841   -1.642498   -1.816868
  H     -0.758603   -2.235434   -2.119499
  H     -2.501697   -2.301241   -1.750581
  H     -1.788194   -0.880099   -2.581524

ORBITAL ENERGIES
----------------
                 SPIN UP ORBITALS
  NO   OCC          E(Eh)            E(eV)
   0   1.0000    -261.557051     -7117.3292
   1   1.0000    -104.780153     -2851.2129
   2   1.0000    -104.779277     -2851.1891
   3   1.0000    -104.779067     -2851.1834
   4   1.0000     -32.224920      -876.8847
   5   1.0000     -27.701007      -753.7827
   6   1.0000     -27.700498      -753.7689
   7   1.0000     -27.700326      -753.7642
   8   1.0000     -20.565304      -559.6104
   9   1.0000     -11.403317      -310.3000
  10   1.0000     -11.339893      -308.5742
  11   1.0000     -11.270321      -306.6810
  12   1.0000     -11.262622      -306.4715
  13   1.0000     -11.260485      -306.4134
  14   1.0000     -11.258179      -306.3506
  15   1.0000     -11.258020      -306.3463
  16   1.0000     -11.256391      -306.3020
  17   1.0000     -10.506772      -285.9038
  18   1.0000     -10.505810      -285.8776
  19   1.0000     -10.505630      -285.8727
  20   1.0000      -7.973651      -216.9741
  21   1.0000      -7.972829      -216.9517
  22   1.0000      -7.972782      -216.9504
  23   1.0000      -7.972616      -216.9459
  24   1.0000      -7.972477      -216.9421
  25   1.0000      -7.971919      -216.9269
  26   1.0000      -7.971834      -216.9246
  27   1.0000      -7.971730      -216.9218
  28   1.0000      -7.971644      -216.9195
  29   1.0000      -4.580303      -124.6364
  30   1.0000      -3.193143       -86.8898
  31   1.0000      -3.192205       -86.8643
  32   1.0000      -3.191748       -86.8519
  33   1.0000      -1.416386       -38.5418
  34   1.0000      -1.164167       -31.6786
  35   1.0000      -1.089632       -29.6504
  36   1.0000      -1.052505       -28.6401
  37   1.0000      -1.047038       -28.4913
  38   1.0000      -1.045529       -28.4503
  39   1.0000      -1.037732       -28.2381
  40   1.0000      -0.998903       -27.1815
  41   1.0000      -0.984867       -26.7996
  42   1.0000      -0.931140       -25.3376
  43   1.0000      -0.918758       -25.0007
  44   1.0000      -0.909875       -24.7590
  45   1.0000      -0.909791       -24.7567
  46   1.0000      -0.900473       -24.5031
  47   1.0000      -0.900051       -24.4916
  48   1.0000      -0.791188       -21.5293
  49   1.0000      -0.757068       -20.6009
  50   1.0000      -0.697633       -18.9836
  51   1.0000      -0.691181       -18.8080
  52   1.0000      -0.682110       -18.5611
  53   1.0000      -0.664234       -18.0747
  54   1.0000      -0.642121       -17.4730
  55   1.0000      -0.621320       -16.9070
  56   1.0000      -0.601586       -16.3700
  57   1.0000      -0.595784       -16.2121
  58   1.0000      -0.584518       -15.9055
  59   1.0000      -0.577321       -15.7097
  60   1.0000      -0.574099       -15.6220
  61   1.0000      -0.567364       -15.4388
  62   1.0000      -0.552926       -15.0459
  63   1.0000      -0.549841       -14.9619
  64   1.0000      -0.542931       -14.7739
  65   1.0000      -0.523636       -14.2488
  66   1.0000      -0.514937       -14.0122
  67   1.0000      -0.484469       -13.1831
  68   1.0000      -0.467275       -12.7152
  69   1.0000      -0.457207       -12.4412
  70   1.0000      -0.434791       -11.8313
  71   1.0000      -0.429659       -11.6916
  72   1.0000      -0.427722       -11.6389
  73   1.0000      -0.420220       -11.4348
  74   1.0000      -0.418145       -11.3783
  75   1.0000      -0.417589       -11.3632
  76   1.0000      -0.376475       -10.2444
  77   0.0000       0.010528         0.2865
  78   0.0000       0.021067         0.5733
  79   0.0000       0.022664         0.6167
  80   0.0000       0.030264         0.8235
  81   0.0000       0.038555         1.0491

                 SPIN DOWN ORBITALS
  NO   OCC          E(Eh)            E(eV)
   0   1.0000    -261.553501     -7117.2326
   1   1.0000    -104.778742     -2851.1745
   2   1.0000    -104.777881     -2851.1511
   3   1.0000    -104.777618     -2851.1439
   4   1.0000     -32.062888      -872.4755
   5   1.0000     -27.540882      -749.4255
   6   1.0000     -27.540781      -749.4228
   7   1.0000     -27.540417      -749.4128
   8   1.0000     -20.560416      -559.4774
   9   1.0000     -11.403246      -310.2981
  10   1.0000     -11.339888      -308.5740
  11   1.0000     -11.269976      -306.6716
  12   1.0000     -11.262526      -306.4689
  13   1.0000     -11.260475      -306.4131
  14   1.0000     -11.258216      -306.3516
  15   1.0000     -11.257987      -306.3454
  16   1.0000     -11.256410      -306.3025
  17   1.0000     -10.505258      -285.8626
  18   1.0000     -10.504319      -285.8371
  19   1.0000     -10.504079      -285.8305
  20   1.0000      -7.971150      -216.9060
  21   1.0000      -7.970562      -216.8900
  22   1.0000      -7.970488      -216.8880
  23   1.0000      -7.970296      -216.8828
  24   1.0000      -7.969998      -216.8747
  25   1.0000      -7.969581      -216.8633
  26   1.0000      -7.969487      -216.8608
  27   1.0000      -7.969338      -216.8567
  28   1.0000      -7.969250      -216.8543
  29   1.0000      -4.138058      -112.6023
  30   1.0000      -2.659766       -72.3759
  31   1.0000      -2.659688       -72.3738
  32   1.0000      -2.659211       -72.3608
  33   1.0000      -1.403946       -38.2033
  34   1.0000      -1.163086       -31.6492
  35   1.0000      -1.086937       -29.5770
  36   1.0000      -1.037846       -28.2412
  37   1.0000      -1.037047       -28.2195
  38   1.0000      -1.026081       -27.9211
  39   1.0000      -1.025115       -27.8948
  40   1.0000      -0.998165       -27.1615
  41   1.0000      -0.984732       -26.7959
  42   1.0000      -0.924616       -25.1601
  43   1.0000      -0.804938       -21.9035
  44   1.0000      -0.757313       -20.6075
  45   1.0000      -0.697327       -18.9752
  46   1.0000      -0.692911       -18.8551
  47   1.0000      -0.682556       -18.5733
  48   1.0000      -0.663403       -18.0521
  49   1.0000      -0.642028       -17.4705
  50   1.0000      -0.621252       -16.9051
  51   1.0000      -0.600697       -16.3458
  52   1.0000      -0.595642       -16.2083
  53   1.0000      -0.584418       -15.9028
  54   1.0000      -0.577206       -15.7066
  55   1.0000      -0.573824       -15.6145
  56   1.0000      -0.567107       -15.4318
  57   1.0000      -0.552411       -15.0319
  58   1.0000      -0.549627       -14.9561
  59   1.0000      -0.537931       -14.6378
  60   1.0000      -0.523263       -14.2387
  61   1.0000      -0.508376       -13.8336
  62   1.0000      -0.481331       -13.0977
  63   1.0000      -0.471241       -12.8231
  64   1.0000      -0.468067       -12.7368
  65   1.0000      -0.441786       -12.0216
  66   1.0000      -0.439039       -11.9469
  67   1.0000      -0.437084       -11.8937
  68   1.0000      -0.424519       -11.5517
  69   1.0000      -0.417012       -11.3475
  70   1.0000      -0.403952       -10.9921
  71   1.0000      -0.374617       -10.1939
  72   0.0000       0.010528         0.2865
  73   0.0000       0.021028         0.5722
  74   0.0000       0.022641         0.6161
  75   0.0000       0.030297         0.8244
  76   0.0000       0.038531         1.0485

E(0)                                       ...  -3028.421797364
E(0)                                       ...  -3028.421797364
E(CORR)(strong-pairs)                      ...     -2.873317900
E(CORR)(weak-pairs)                        ...     -0.035497972
E(CORR)(corrected)                         ...     -2.908815872
E(TOT)                                     ...  -3031.330613236
E(CCSD(T))                                 ...  -3031.450409006
FINAL SINGLE POINT ENERGY     -3031.450409006234

DIPOLE MOMENT
-------------
                                X             Y             Z
Electronic contribution:     41.83183       2.70893       2.20305
Nuclear contribution   :    -46.14469      -3.00569      -2.69803
                        -----------------------------------------
Total Dipole Moment    :     -4.31286      -0.29676      -0.49498
                        -----------------------------------------
Magnitude (a.u.)       :      4.35130
Magnitude (Debye)      :     11.06013

Rotational constants in cm-1:     0.019515     0.011301     0.010530
Rotational constants in MHz :   585.032552   338.803724   315.669509

                             ****ORCA TERMINATED NORMALLY****
TOTAL RUN TIME: 0 days 20 hours 58 minutes 47 seconds 886 msec
