                         Program Version 4.1.2  - RELEASE  -
|  1> ! aug-cc-pVTZ aug-cc-pVTZ/C DLPNO-CCSD(T1) TightSCF NormalPNO UNO MiniPrint AutoAux
|  2> %pal nproc 10 end
|  3> %maxcore 20000
|  4> %mdci
|  5>      density none
|  6> end
|  7>
|  8> * xyz 0 6
|  9>  O     -0.33466200     -0.07672500     -0.40192900
| 10>  C     -1.27142300     -1.05204300     -0.24707700
| 11>  C     -2.49405200     -0.44696300      0.68112400
| 12>  C     -2.93979000      0.72411300     -0.03524600
| 13>  C     -4.08369900      0.65463500     -0.97734800
| 14> Fe      1.48811500      0.17240100     -0.08162800
| 15> Cl      1.76136500      2.25004000     -0.77759000
| 16>  C     -2.15518500      1.93446600      0.03026300
| 17> Cl      2.54247600     -1.38786800     -1.22148000
| 18> Cl      1.80405600     -0.00616000      2.10604100
| 19>  H     -3.26196100     -1.22564200      0.65700000
| 20>  H     -2.54165000      2.77818400     -0.54103700
| 21>  H     -1.83817400      2.21974200      1.03666900
| 22>  H     -1.18701500      1.54343100     -0.41825700
| 23>  H     -4.91866900      1.19931400     -0.50712700
| 24>  H     -3.86674700      1.18443100     -1.91217100
| 25>  H     -4.41425700     -0.36453600     -1.18130600
| 26>  C     -1.99572900     -0.18319800      2.11241600
| 27>  H     -2.69306400      0.46876000      2.64782700
| 28>  H     -1.93263700     -1.12309300      2.66278800
| 29>  H     -1.00447000      0.27434600      2.11686900
| 30>  C     -0.72946800     -2.27041000      0.52536100
| 31>  H     -1.52248700     -2.99291500      0.74281800
| 32>  H      0.01992800     -2.74929500     -0.11231200
| 33>  H     -0.23666000     -1.97393900      1.45149800
| 34>  C     -1.79121200     -1.49742400     -1.62292800
| 35>  H     -0.96836200     -1.99467300     -2.14383000
| 36>  H     -2.62751100     -2.20087900     -1.54405900
| 37>  H     -2.09085900     -0.64312900     -2.23550100
| 38> *
| 39>
| 40>
| 41>                          ****END OF INPUT****

CARTESIAN COORDINATES (ANGSTROEM)
---------------------------------
  O     -0.334662   -0.076725   -0.401929
  C     -1.271423   -1.052043   -0.247077
  C     -2.494052   -0.446963    0.681124
  C     -2.939790    0.724113   -0.035246
  C     -4.083699    0.654635   -0.977348
  Fe     1.488115    0.172401   -0.081628
  Cl     1.761365    2.250040   -0.777590
  C     -2.155185    1.934466    0.030263
  Cl     2.542476   -1.387868   -1.221480
  Cl     1.804056   -0.006160    2.106041
  H     -3.261961   -1.225642    0.657000
  H     -2.541650    2.778184   -0.541037
  H     -1.838174    2.219742    1.036669
  H     -1.187015    1.543431   -0.418257
  H     -4.918669    1.199314   -0.507127
  H     -3.866747    1.184431   -1.912171
  H     -4.414257   -0.364536   -1.181306
  C     -1.995729   -0.183198    2.112416
  H     -2.693064    0.468760    2.647827
  H     -1.932637   -1.123093    2.662788
  H     -1.004470    0.274346    2.116869
  C     -0.729468   -2.270410    0.525361
  H     -1.522487   -2.992915    0.742818
  H      0.019928   -2.749295   -0.112312
  H     -0.236660   -1.973939    1.451498
  C     -1.791212   -1.497424   -1.622928
  H     -0.968362   -1.994673   -2.143830
  H     -2.627511   -2.200879   -1.544059
  H     -2.090859   -0.643129   -2.235501

ORBITAL ENERGIES
----------------
                 SPIN UP ORBITALS
  NO   OCC          E(Eh)            E(eV)
   0   1.0000    -261.538365     -7116.8207
   1   1.0000    -104.766802     -2850.8496
   2   1.0000    -104.765846     -2850.8236
   3   1.0000    -104.764004     -2850.7735
   4   1.0000     -32.206298      -876.3779
   5   1.0000     -27.682159      -753.2698
   6   1.0000     -27.682022      -753.2661
   7   1.0000     -27.681776      -753.2594
   8   1.0000     -20.535408      -558.7969
   9   1.0000     -11.403488      -310.3047
  10   1.0000     -11.341577      -308.6200
  11   1.0000     -11.309589      -307.7496
  12   1.0000     -11.292805      -307.2928
  13   1.0000     -11.278513      -306.9039
  14   1.0000     -11.255812      -306.2862
  15   1.0000     -11.243571      -305.9531
  16   1.0000     -11.232256      -305.6452
  17   1.0000     -10.493398      -285.5399
  18   1.0000     -10.492412      -285.5130
  19   1.0000     -10.490607      -285.4639
  20   1.0000      -7.960274      -216.6101
  21   1.0000      -7.959449      -216.5876
  22   1.0000      -7.959388      -216.5860
  23   1.0000      -7.959245      -216.5821
  24   1.0000      -7.958511      -216.5621
  25   1.0000      -7.958412      -216.5594
  26   1.0000      -7.957438      -216.5329
  27   1.0000      -7.956708      -216.5130
  28   1.0000      -7.956631      -216.5109
  29   1.0000      -4.561785      -124.1325
  30   1.0000      -3.174274       -86.3764
  31   1.0000      -3.173959       -86.3678
  32   1.0000      -3.173411       -86.3529
  33   1.0000      -1.366429       -37.1824
  34   1.0000      -1.206302       -32.8251
  35   1.0000      -1.092060       -29.7165
  36   1.0000      -1.047233       -28.4966
  37   1.0000      -1.037706       -28.2374
  38   1.0000      -1.032527       -28.0965
  39   1.0000      -1.030660       -28.0457
  40   1.0000      -1.022639       -27.8274
  41   1.0000      -0.966359       -26.2960
  42   1.0000      -0.933062       -25.3899
  43   1.0000      -0.903616       -24.5887
  44   1.0000      -0.891417       -24.2567
  45   1.0000      -0.891320       -24.2541
  46   1.0000      -0.883008       -24.0279
  47   1.0000      -0.882669       -24.0186
  48   1.0000      -0.806439       -21.9443
  49   1.0000      -0.769192       -20.9308
  50   1.0000      -0.717427       -19.5222
  51   1.0000      -0.699695       -19.0397
  52   1.0000      -0.678864       -18.4728
  53   1.0000      -0.649873       -17.6839
  54   1.0000      -0.647009       -17.6060
  55   1.0000      -0.636157       -17.3107
  56   1.0000      -0.613032       -16.6815
  57   1.0000      -0.599316       -16.3082
  58   1.0000      -0.592148       -16.1132
  59   1.0000      -0.582797       -15.8587
  60   1.0000      -0.572637       -15.5823
  61   1.0000      -0.562274       -15.3003
  62   1.0000      -0.552783       -15.0420
  63   1.0000      -0.538318       -14.6484
  64   1.0000      -0.529347       -14.4043
  65   1.0000      -0.512634       -13.9495
  66   1.0000      -0.499088       -13.5809
  67   1.0000      -0.463518       -12.6130
  68   1.0000      -0.458317       -12.4714
  69   1.0000      -0.438394       -11.9293
  70   1.0000      -0.431371       -11.7382
  71   1.0000      -0.417602       -11.3635
  72   1.0000      -0.413447       -11.2505
  73   1.0000      -0.409146       -11.1334
  74   1.0000      -0.405668       -11.0388
  75   1.0000      -0.404460       -11.0059
  76   1.0000      -0.403653       -10.9840
  77   0.0000      -0.003210        -0.0873
  78   0.0000       0.000503         0.0137
  79   0.0000       0.016809         0.4574
  80   0.0000       0.017356         0.4723
  81   0.0000       0.026880         0.7314

                 SPIN DOWN ORBITALS
  NO   OCC          E(Eh)            E(eV)
   0   1.0000    -261.534818     -7116.7242
   1   1.0000    -104.765447     -2850.8127
   2   1.0000    -104.764503     -2850.7870
   3   1.0000    -104.762594     -2850.7351
   4   1.0000     -32.044237      -871.9680
   5   1.0000     -27.522323      -748.9205
   6   1.0000     -27.522145      -748.9156
   7   1.0000     -27.521651      -748.9022
   8   1.0000     -20.529611      -558.6391
   9   1.0000     -11.403476      -310.3044
  10   1.0000     -11.341426      -308.6159
  11   1.0000     -11.309593      -307.7497
  12   1.0000     -11.292682      -307.2895
  13   1.0000     -11.278512      -306.9039
  14   1.0000     -11.255836      -306.2869
  15   1.0000     -11.243479      -305.9506
  16   1.0000     -11.232219      -305.6442
  17   1.0000     -10.491940      -285.5002
  18   1.0000     -10.490970      -285.4738
  19   1.0000     -10.489096      -285.4228
  20   1.0000      -7.957832      -216.5436
  21   1.0000      -7.957296      -216.5290
  22   1.0000      -7.957219      -216.5270
  23   1.0000      -7.956924      -216.5189
  24   1.0000      -7.956314      -216.5023
  25   1.0000      -7.956207      -216.4994
  26   1.0000      -7.955055      -216.4680
  27   1.0000      -7.954367      -216.4493
  28   1.0000      -7.954293      -216.4473
  29   1.0000      -4.119552      -112.0987
  30   1.0000      -2.641464       -71.8779
  31   1.0000      -2.641368       -71.8753
  32   1.0000      -2.640441       -71.8501
  33   1.0000      -1.351761       -36.7833
  34   1.0000      -1.205172       -32.7944
  35   1.0000      -1.089568       -29.6487
  36   1.0000      -1.046495       -28.4766
  37   1.0000      -1.023879       -27.8612
  38   1.0000      -1.021154       -27.7870
  39   1.0000      -1.012395       -27.5487
  40   1.0000      -1.010707       -27.5027
  41   1.0000      -0.965697       -26.2780
  42   1.0000      -0.932646       -25.3786
  43   1.0000      -0.811220       -22.0744
  44   1.0000      -0.776229       -21.1223
  45   1.0000      -0.718129       -19.5413
  46   1.0000      -0.699184       -19.0258
  47   1.0000      -0.679062       -18.4782
  48   1.0000      -0.649768       -17.6811
  49   1.0000      -0.647995       -17.6328
  50   1.0000      -0.635507       -17.2930
  51   1.0000      -0.613078       -16.6827
  52   1.0000      -0.599205       -16.3052
  53   1.0000      -0.592026       -16.1098
  54   1.0000      -0.581428       -15.8215
  55   1.0000      -0.571261       -15.5448
  56   1.0000      -0.561899       -15.2901
  57   1.0000      -0.552726       -15.0404
  58   1.0000      -0.538283       -14.6474
  59   1.0000      -0.526965       -14.3395
  60   1.0000      -0.508898       -13.8478
  61   1.0000      -0.493723       -13.4349
  62   1.0000      -0.461119       -12.5477
  63   1.0000      -0.458819       -12.4851
  64   1.0000      -0.444247       -12.0886
  65   1.0000      -0.438724       -11.9383
  66   1.0000      -0.428072       -11.6484
  67   1.0000      -0.424926       -11.5628
  68   1.0000      -0.423917       -11.5354
  69   1.0000      -0.403353       -10.9758
  70   1.0000      -0.396336       -10.7848
  71   1.0000      -0.390560       -10.6277
  72   0.0000      -0.003302        -0.0898
  73   0.0000       0.000490         0.0133
  74   0.0000       0.016801         0.4572
  75   0.0000       0.017341         0.4719
  76   0.0000       0.026897         0.7319

E(0)                                       ...  -3028.424650414
E(0)                                       ...  -3028.424650414
E(CORR)(strong-pairs)                      ...     -2.874060280
E(CORR)(weak-pairs)                        ...     -0.035360663
E(CORR)(corrected)                         ...     -2.909420943
E(TOT)                                     ...  -3031.334071357
E(CCSD(T))                                 ...  -3031.452793182
FINAL SINGLE POINT ENERGY     -3031.452793182439

DIPOLE MOMENT
-------------
                                X             Y             Z
Electronic contribution:     41.72972       7.19194      -0.88798
Nuclear contribution   :    -47.71564      -7.21238       0.84097
                        -----------------------------------------
Total Dipole Moment    :     -5.98592      -0.02044      -0.04701
                        -----------------------------------------
Magnitude (a.u.)       :      5.98614
Magnitude (Debye)      :     15.21556

Rotational constants in cm-1:     0.019988     0.010482     0.009985
Rotational constants in MHz :   599.214922   314.257020   299.338865

                             ****ORCA TERMINATED NORMALLY****
TOTAL RUN TIME: 0 days 20 hours 31 minutes 43 seconds 611 msec
