                         Program Version 4.1.2  - RELEASE  -
|  1> ! aug-cc-pVTZ aug-cc-pVTZ/C DLPNO-CCSD(T1) TightSCF NormalPNO UNO MiniPrint AutoAux
|  2> %pal nproc 10 end
|  3> %maxcore 20000
|  4> %mdci
|  5>      density none
|  6> end
|  7>
|  8> * xyz 0 6
|  9>  O     -0.30994200     -0.18104800     -0.74620600
| 10>  C     -1.21030000     -1.10124500     -0.60181500
| 11>  C     -2.83138100     -0.24855500      0.42532700
| 12>  C     -2.49126900      0.97282700     -0.10364500
| 13>  C     -2.96173200      1.41673800     -1.45026200
| 14> Fe      1.42125000      0.11766700     -0.00671400
| 15> Cl      2.00153200      2.07842500     -0.79626100
| 16>  C     -1.60748700      1.94342100      0.60031800
| 17> Cl      2.61781000     -1.58694300     -0.69810000
| 18> Cl      1.18753500      0.12229800      2.19803300
| 19>  H     -3.60487300     -0.80210800     -0.10373400
| 20>  H     -2.22356700      2.79620400      0.92141300
| 21>  H     -1.10974000      1.53362800      1.47722400
| 22>  H     -0.85027200      2.34140900     -0.08450100
| 23>  H     -3.39819200      2.41981100     -1.36549800
| 24>  H     -2.10178200      1.51242200     -2.12647400
| 25>  H     -3.70596700      0.74982900     -1.88935500
| 26>  C     -2.72507500     -0.55575300      1.90457400
| 27>  H     -3.49960600      0.00071200      2.44678900
| 28>  H     -2.89297200     -1.61683700      2.10030900
| 29>  H     -1.75831700     -0.28085800      2.33171000
| 30>  C     -0.91084100     -2.23117700      0.35909500
| 31>  H     -1.76479900     -2.89557200      0.50278600
| 32>  H     -0.10121600     -2.80268400     -0.11573400
| 33>  H     -0.53654600     -1.87488300      1.31788900
| 34>  C     -1.87127400     -1.54596200     -1.89243300
| 35>  H     -1.12171700     -2.15997400     -2.40828200
| 36>  H     -2.75833200     -2.15992900     -1.72311700
| 37>  H     -2.10583500     -0.70815700     -2.54659500
| 38> *
| 39>
| 40>
| 41>                          ****END OF INPUT****

CARTESIAN COORDINATES (ANGSTROEM)
---------------------------------
  O     -0.309942   -0.181048   -0.746206
  C     -1.210300   -1.101245   -0.601815
  C     -2.831381   -0.248555    0.425327
  C     -2.491269    0.972827   -0.103645
  C     -2.961732    1.416738   -1.450262
  Fe     1.421250    0.117667   -0.006714
  Cl     2.001532    2.078425   -0.796261
  C     -1.607487    1.943421    0.600318
  Cl     2.617810   -1.586943   -0.698100
  Cl     1.187535    0.122298    2.198033
  H     -3.604873   -0.802108   -0.103734
  H     -2.223567    2.796204    0.921413
  H     -1.109740    1.533628    1.477224
  H     -0.850272    2.341409   -0.084501
  H     -3.398192    2.419811   -1.365498
  H     -2.101782    1.512422   -2.126474
  H     -3.705967    0.749829   -1.889355
  C     -2.725075   -0.555753    1.904574
  H     -3.499606    0.000712    2.446789
  H     -2.892972   -1.616837    2.100309
  H     -1.758317   -0.280858    2.331710
  C     -0.910841   -2.231177    0.359095
  H     -1.764799   -2.895572    0.502786
  H     -0.101216   -2.802684   -0.115734
  H     -0.536546   -1.874883    1.317889
  C     -1.871274   -1.545962   -1.892433
  H     -1.121717   -2.159974   -2.408282
  H     -2.758332   -2.159929   -1.723117
  H     -2.105835   -0.708157   -2.546595

ORBITAL ENERGIES
----------------
                 SPIN UP ORBITALS
  NO   OCC          E(Eh)            E(eV)
   0   1.0000    -261.559340     -7117.3915
   1   1.0000    -104.783178     -2851.2952
   2   1.0000    -104.778669     -2851.1725
   3   1.0000    -104.778609     -2851.1709
   4   1.0000     -32.227199      -876.9467
   5   1.0000     -27.703311      -753.8454
   6   1.0000     -27.702764      -753.8305
   7   1.0000     -27.702563      -753.8251
   8   1.0000     -20.573501      -559.8334
   9   1.0000     -11.402984      -310.2910
  10   1.0000     -11.329076      -308.2798
  11   1.0000     -11.268467      -306.6306
  12   1.0000     -11.267674      -306.6090
  13   1.0000     -11.263408      -306.4929
  14   1.0000     -11.256610      -306.3079
  15   1.0000     -11.250628      -306.1452
  16   1.0000     -11.249044      -306.1021
  17   1.0000     -10.509820      -285.9868
  18   1.0000     -10.505272      -285.8630
  19   1.0000     -10.505250      -285.8624
  20   1.0000      -7.976698      -217.0570
  21   1.0000      -7.975852      -217.0340
  22   1.0000      -7.975820      -217.0331
  23   1.0000      -7.972105      -216.9320
  24   1.0000      -7.972080      -216.9313
  25   1.0000      -7.971383      -216.9123
  26   1.0000      -7.971349      -216.9114
  27   1.0000      -7.971313      -216.9105
  28   1.0000      -7.971280      -216.9095
  29   1.0000      -4.582398      -124.6934
  30   1.0000      -3.195148       -86.9444
  31   1.0000      -3.194233       -86.9195
  32   1.0000      -3.193892       -86.9102
  33   1.0000      -1.418951       -38.6116
  34   1.0000      -1.162608       -31.6362
  35   1.0000      -1.087072       -29.5807
  36   1.0000      -1.054426       -28.6924
  37   1.0000      -1.048681       -28.5361
  38   1.0000      -1.046072       -28.4651
  39   1.0000      -1.037665       -28.2363
  40   1.0000      -0.994521       -27.0623
  41   1.0000      -0.983866       -26.7724
  42   1.0000      -0.928749       -25.2726
  43   1.0000      -0.918443       -24.9921
  44   1.0000      -0.911629       -24.8067
  45   1.0000      -0.911551       -24.8046
  46   1.0000      -0.902286       -24.5524
  47   1.0000      -0.901547       -24.5323
  48   1.0000      -0.793121       -21.5819
  49   1.0000      -0.755984       -20.5714
  50   1.0000      -0.692256       -18.8372
  51   1.0000      -0.689504       -18.7624
  52   1.0000      -0.680103       -18.5065
  53   1.0000      -0.665133       -18.0992
  54   1.0000      -0.644039       -17.5252
  55   1.0000      -0.624246       -16.9866
  56   1.0000      -0.602881       -16.4052
  57   1.0000      -0.594400       -16.1744
  58   1.0000      -0.583215       -15.8701
  59   1.0000      -0.573736       -15.6121
  60   1.0000      -0.569653       -15.5010
  61   1.0000      -0.560778       -15.2596
  62   1.0000      -0.555152       -15.1065
  63   1.0000      -0.548870       -14.9355
  64   1.0000      -0.542400       -14.7595
  65   1.0000      -0.521046       -14.1784
  66   1.0000      -0.518280       -14.1031
  67   1.0000      -0.483492       -13.1565
  68   1.0000      -0.466651       -12.6982
  69   1.0000      -0.461119       -12.5477
  70   1.0000      -0.433980       -11.8092
  71   1.0000      -0.430571       -11.7164
  72   1.0000      -0.428950       -11.6723
  73   1.0000      -0.419989       -11.4285
  74   1.0000      -0.418700       -11.3934
  75   1.0000      -0.417835       -11.3699
  76   1.0000      -0.379863       -10.3366
  77   0.0000       0.010371         0.2822
  78   0.0000       0.020697         0.5632
  79   0.0000       0.022249         0.6054
  80   0.0000       0.029109         0.7921
  81   0.0000       0.035521         0.9666

                 SPIN DOWN ORBITALS
  NO   OCC          E(Eh)            E(eV)
   0   1.0000    -261.555787     -7117.2948
   1   1.0000    -104.781795     -2851.2576
   2   1.0000    -104.777229     -2851.1333
   3   1.0000    -104.777123     -2851.1305
   4   1.0000     -32.065129      -872.5365
   5   1.0000     -27.543118      -749.4863
   6   1.0000     -27.543025      -749.4838
   7   1.0000     -27.542688      -749.4747
   8   1.0000     -20.568927      -559.7090
   9   1.0000     -11.402944      -310.2899
  10   1.0000     -11.328912      -308.2754
  11   1.0000     -11.268407      -306.6290
  12   1.0000     -11.267695      -306.6096
  13   1.0000     -11.263294      -306.4898
  14   1.0000     -11.256590      -306.3074
  15   1.0000     -11.250673      -306.1464
  16   1.0000     -11.249051      -306.1022
  17   1.0000     -10.508335      -285.9463
  18   1.0000     -10.503735      -285.8212
  19   1.0000     -10.503661      -285.8191
  20   1.0000      -7.974208      -216.9892
  21   1.0000      -7.973657      -216.9742
  22   1.0000      -7.973594      -216.9725
  23   1.0000      -7.969715      -216.8670
  24   1.0000      -7.969576      -216.8632
  25   1.0000      -7.968955      -216.8463
  26   1.0000      -7.968892      -216.8446
  27   1.0000      -7.968867      -216.8439
  28   1.0000      -7.968806      -216.8422
  29   1.0000      -4.140079      -112.6573
  30   1.0000      -2.661788       -72.4309
  31   1.0000      -2.661760       -72.4302
  32   1.0000      -2.660945       -72.4080
  33   1.0000      -1.407338       -38.2956
  34   1.0000      -1.161794       -31.6140
  35   1.0000      -1.084337       -29.5063
  36   1.0000      -1.040220       -28.3058
  37   1.0000      -1.037007       -28.2184
  38   1.0000      -1.027661       -27.9641
  39   1.0000      -1.024769       -27.8854
  40   1.0000      -0.993875       -27.0447
  41   1.0000      -0.983587       -26.7648
  42   1.0000      -0.920599       -25.0508
  43   1.0000      -0.806255       -21.9393
  44   1.0000      -0.756336       -20.5809
  45   1.0000      -0.694189       -18.8898
  46   1.0000      -0.688923       -18.7465
  47   1.0000      -0.680515       -18.5177
  48   1.0000      -0.664357       -18.0781
  49   1.0000      -0.643875       -17.5207
  50   1.0000      -0.623786       -16.9741
  51   1.0000      -0.602107       -16.3842
  52   1.0000      -0.594475       -16.1765
  53   1.0000      -0.583039       -15.8653
  54   1.0000      -0.573022       -15.5927
  55   1.0000      -0.569539       -15.4979
  56   1.0000      -0.560658       -15.2563
  57   1.0000      -0.554802       -15.0969
  58   1.0000      -0.547865       -14.9082
  59   1.0000      -0.538640       -14.6571
  60   1.0000      -0.518537       -14.1101
  61   1.0000      -0.510611       -13.8944
  62   1.0000      -0.482352       -13.1255
  63   1.0000      -0.472363       -12.8536
  64   1.0000      -0.470389       -12.7999
  65   1.0000      -0.443100       -12.0574
  66   1.0000      -0.440175       -11.9778
  67   1.0000      -0.437939       -11.9169
  68   1.0000      -0.423709       -11.5297
  69   1.0000      -0.418289       -11.3822
  70   1.0000      -0.404280       -11.0010
  71   1.0000      -0.377223       -10.2648
  72   0.0000       0.010365         0.2821
  73   0.0000       0.020668         0.5624
  74   0.0000       0.022237         0.6051
  75   0.0000       0.028944         0.7876
  76   0.0000       0.035028         0.9532

E(0)                                       ...  -3028.431604308
E(0)                                       ...  -3028.431604308
E(CORR)(strong-pairs)                      ...     -2.873987907
E(CORR)(weak-pairs)                        ...     -0.036521409
E(CORR)(corrected)                         ...     -2.910509316
E(TOT)                                     ...  -3031.342113624
E(CCSD(T))                                 ...  -3031.462172307
FINAL SINGLE POINT ENERGY     -3031.462172307103

DIPOLE MOMENT
-------------
                                X             Y             Z
Electronic contribution:     41.23599       4.55291       1.64889
Nuclear contribution   :    -45.55952      -5.08565      -2.17562
                        -----------------------------------------
Total Dipole Moment    :     -4.32352      -0.53274      -0.52672
                        -----------------------------------------
Magnitude (a.u.)       :      4.38795
Magnitude (Debye)      :     11.15328

Rotational constants in cm-1:     0.019135     0.011319     0.010610
Rotational constants in MHz :   573.659324   339.344020   318.080760

                             ****ORCA TERMINATED NORMALLY****
TOTAL RUN TIME: 0 days 21 hours 0 minutes 48 seconds 456 msec
