                         Program Version 4.1.2  - RELEASE  -
|  1> ! aug-cc-pVTZ aug-cc-pVTZ/C DLPNO-CCSD(T1) TightSCF NormalPNO UNO MiniPrint AutoAux
|  2> %pal nproc 10 end
|  3> %maxcore 20000
|  4> %mdci
|  5>      density none
|  6> end
|  7>
|  8> * xyz 0 6
|  9>  O     -0.28603700     -0.22133400     -0.77999400
| 10>  C     -1.16598200     -1.14076300     -0.61923100
| 11>  C     -2.84040000     -0.25242700      0.49754700
| 12>  C     -2.56198000      0.94860600     -0.09161800
| 13>  C     -3.11925600      1.32507400     -1.42930000
| 14> Fe      1.43903400      0.13225500     -0.01083200
| 15> Cl      2.01719800      2.06090400     -0.86545600
| 16>  C     -1.65880800      1.96766700      0.51724200
| 17> Cl      2.64372000     -1.58995300     -0.63417800
| 18> Cl      1.17499300      0.20952800      2.18200200
| 19>  H     -3.59803500     -0.86641600      0.01394600
| 20>  H     -2.21984700      2.89799700      0.67851600
| 21>  H     -1.21605400      1.65956500      1.46274100
| 22>  H     -0.84964500      2.21280400     -0.18271300
| 23>  H     -3.63852800      2.28818400     -1.34589200
| 24>  H     -2.30513800      1.47611800     -2.15060500
| 25>  H     -3.82438700      0.58926900     -1.82135600
| 26>  C     -2.63771700     -0.52569200      1.97169400
| 27>  H     -3.39359100      0.02178900      2.54872800
| 28>  H     -2.76627600     -1.58592300      2.19999000
| 29>  H     -1.65568000     -0.21695600      2.33605800
| 30>  C     -0.87905300     -2.24447900      0.36984300
| 31>  H     -1.74248600     -2.88973300      0.53922000
| 32>  H     -0.08269600     -2.84323200     -0.09457000
| 33>  H     -0.49035500     -1.86660200      1.31458500
| 34>  C     -1.88443800     -1.57674900     -1.87710700
| 35>  H     -1.17816500     -2.23266000     -2.40364800
| 36>  H     -2.79048600     -2.14986600     -1.67208100
| 37>  H     -2.09989800     -0.73785600     -2.53603300
| 38> *
| 39>
| 40>
| 41>                          ****END OF INPUT****

CARTESIAN COORDINATES (ANGSTROEM)
---------------------------------
  O     -0.286037   -0.221334   -0.779994
  C     -1.165982   -1.140763   -0.619231
  C     -2.840400   -0.252427    0.497547
  C     -2.561980    0.948606   -0.091618
  C     -3.119256    1.325074   -1.429300
  Fe     1.439034    0.132255   -0.010832
  Cl     2.017198    2.060904   -0.865456
  C     -1.658808    1.967667    0.517242
  Cl     2.643720   -1.589953   -0.634178
  Cl     1.174993    0.209528    2.182002
  H     -3.598035   -0.866416    0.013946
  H     -2.219847    2.897997    0.678516
  H     -1.216054    1.659565    1.462741
  H     -0.849645    2.212804   -0.182713
  H     -3.638528    2.288184   -1.345892
  H     -2.305138    1.476118   -2.150605
  H     -3.824387    0.589269   -1.821356
  C     -2.637717   -0.525692    1.971694
  H     -3.393591    0.021789    2.548728
  H     -2.766276   -1.585923    2.199990
  H     -1.655680   -0.216956    2.336058
  C     -0.879053   -2.244479    0.369843
  H     -1.742486   -2.889733    0.539220
  H     -0.082696   -2.843232   -0.094570
  H     -0.490355   -1.866602    1.314585
  C     -1.884438   -1.576749   -1.877107
  H     -1.178165   -2.232660   -2.403648
  H     -2.790486   -2.149866   -1.672081
  H     -2.099898   -0.737856   -2.536033

ORBITAL ENERGIES
----------------
                 SPIN UP ORBITALS
  NO   OCC          E(Eh)            E(eV)
   0   1.0000    -261.563785     -7117.5124
   1   1.0000    -104.786166     -2851.3765
   2   1.0000    -104.781937     -2851.2615
   3   1.0000    -104.781091     -2851.2385
   4   1.0000     -32.231617      -877.0669
   5   1.0000     -27.707832      -753.9684
   6   1.0000     -27.707115      -753.9489
   7   1.0000     -27.706927      -753.9438
   8   1.0000     -20.586542      -560.1883
   9   1.0000     -11.410356      -310.4916
  10   1.0000     -11.310440      -307.7727
  11   1.0000     -11.267905      -306.6153
  12   1.0000     -11.262233      -306.4609
  13   1.0000     -11.261944      -306.4531
  14   1.0000     -11.261457      -306.4398
  15   1.0000     -11.244844      -305.9878
  16   1.0000     -11.244368      -305.9748
  17   1.0000     -10.512836      -286.0688
  18   1.0000     -10.508597      -285.9535
  19   1.0000     -10.507706      -285.9292
  20   1.0000      -7.979701      -217.1387
  21   1.0000      -7.978879      -217.1163
  22   1.0000      -7.978848      -217.1155
  23   1.0000      -7.975457      -217.0232
  24   1.0000      -7.974696      -217.0025
  25   1.0000      -7.974633      -217.0008
  26   1.0000      -7.974512      -216.9975
  27   1.0000      -7.973821      -216.9787
  28   1.0000      -7.973757      -216.9770
  29   1.0000      -4.586749      -124.8118
  30   1.0000      -3.199627       -87.0663
  31   1.0000      -3.198450       -87.0343
  32   1.0000      -3.198182       -87.0269
  33   1.0000      -1.431849       -38.9626
  34   1.0000      -1.152866       -31.3711
  35   1.0000      -1.090260       -29.6675
  36   1.0000      -1.057916       -28.7874
  37   1.0000      -1.052070       -28.6283
  38   1.0000      -1.049308       -28.5531
  39   1.0000      -1.033035       -28.1103
  40   1.0000      -0.998711       -27.1763
  41   1.0000      -0.977763       -26.6063
  42   1.0000      -0.932031       -25.3619
  43   1.0000      -0.915892       -24.9227
  44   1.0000      -0.915835       -24.9211
  45   1.0000      -0.913361       -24.8538
  46   1.0000      -0.906120       -24.6568
  47   1.0000      -0.905381       -24.6367
  48   1.0000      -0.798774       -21.7357
  49   1.0000      -0.749730       -20.4012
  50   1.0000      -0.694721       -18.9043
  51   1.0000      -0.688461       -18.7340
  52   1.0000      -0.682577       -18.5739
  53   1.0000      -0.668174       -18.1819
  54   1.0000      -0.638266       -17.3681
  55   1.0000      -0.623196       -16.9580
  56   1.0000      -0.604370       -16.4457
  57   1.0000      -0.595138       -16.1945
  58   1.0000      -0.582234       -15.8434
  59   1.0000      -0.574070       -15.6212
  60   1.0000      -0.566252       -15.4085
  61   1.0000      -0.558261       -15.1911
  62   1.0000      -0.555122       -15.1056
  63   1.0000      -0.546637       -14.8748
  64   1.0000      -0.540043       -14.6953
  65   1.0000      -0.525303       -14.2942
  66   1.0000      -0.512181       -13.9372
  67   1.0000      -0.488797       -13.3008
  68   1.0000      -0.469511       -12.7760
  69   1.0000      -0.465512       -12.6672
  70   1.0000      -0.437550       -11.9063
  71   1.0000      -0.433291       -11.7904
  72   1.0000      -0.431562       -11.7434
  73   1.0000      -0.422719       -11.5028
  74   1.0000      -0.421454       -11.4683
  75   1.0000      -0.420505       -11.4425
  76   1.0000      -0.374313       -10.1856
  77   0.0000       0.011269         0.3066
  78   0.0000       0.021466         0.5841
  79   0.0000       0.022896         0.6230
  80   0.0000       0.029554         0.8042
  81   0.0000       0.037362         1.0167

                 SPIN DOWN ORBITALS
  NO   OCC          E(Eh)            E(eV)
   0   1.0000    -261.560225     -7117.4156
   1   1.0000    -104.784750     -2851.3380
   2   1.0000    -104.780431     -2851.2205
   3   1.0000    -104.779614     -2851.1982
   4   1.0000     -32.069563      -872.6572
   5   1.0000     -27.547515      -749.6060
   6   1.0000     -27.547445      -749.6041
   7   1.0000     -27.547184      -749.5970
   8   1.0000     -20.582316      -560.0733
   9   1.0000     -11.410288      -310.4897
  10   1.0000     -11.310262      -307.7679
  11   1.0000     -11.267791      -306.6122
  12   1.0000     -11.262249      -306.4614
  13   1.0000     -11.261929      -306.4527
  14   1.0000     -11.261481      -306.4405
  15   1.0000     -11.244841      -305.9877
  16   1.0000     -11.244412      -305.9760
  17   1.0000     -10.511318      -286.0275
  18   1.0000     -10.506987      -285.9097
  19   1.0000     -10.506132      -285.8864
  20   1.0000      -7.977205      -217.0708
  21   1.0000      -7.976598      -217.0543
  22   1.0000      -7.976544      -217.0528
  23   1.0000      -7.972895      -216.9535
  24   1.0000      -7.972205      -216.9347
  25   1.0000      -7.972119      -216.9324
  26   1.0000      -7.972109      -216.9321
  27   1.0000      -7.971318      -216.9106
  28   1.0000      -7.971231      -216.9082
  29   1.0000      -4.144475      -112.7769
  30   1.0000      -2.666142       -72.5494
  31   1.0000      -2.666113       -72.5486
  32   1.0000      -2.665388       -72.5289
  33   1.0000      -1.421176       -38.6722
  34   1.0000      -1.152202       -31.3530
  35   1.0000      -1.087552       -29.5938
  36   1.0000      -1.043116       -28.3846
  37   1.0000      -1.033016       -28.1098
  38   1.0000      -1.030353       -28.0373
  39   1.0000      -1.027557       -27.9613
  40   1.0000      -0.997947       -27.1555
  41   1.0000      -0.977637       -26.6028
  42   1.0000      -0.914064       -24.8730
  43   1.0000      -0.812240       -22.1022
  44   1.0000      -0.749896       -20.4057
  45   1.0000      -0.697489       -18.9796
  46   1.0000      -0.687950       -18.7201
  47   1.0000      -0.681660       -18.5489
  48   1.0000      -0.667789       -18.1715
  49   1.0000      -0.638175       -17.3656
  50   1.0000      -0.622693       -16.9443
  51   1.0000      -0.603750       -16.4289
  52   1.0000      -0.595104       -16.1936
  53   1.0000      -0.582054       -15.8385
  54   1.0000      -0.572984       -15.5917
  55   1.0000      -0.566164       -15.4061
  56   1.0000      -0.558128       -15.1874
  57   1.0000      -0.554822       -15.0975
  58   1.0000      -0.544574       -14.8186
  59   1.0000      -0.538286       -14.6475
  60   1.0000      -0.515092       -14.0164
  61   1.0000      -0.511576       -13.9207
  62   1.0000      -0.488522       -13.2934
  63   1.0000      -0.476115       -12.9558
  64   1.0000      -0.473973       -12.8975
  65   1.0000      -0.446247       -12.1430
  66   1.0000      -0.443133       -12.0583
  67   1.0000      -0.440611       -11.9896
  68   1.0000      -0.425596       -11.5811
  69   1.0000      -0.421094       -11.4585
  70   1.0000      -0.406699       -11.0668
  71   1.0000      -0.372418       -10.1340
  72   0.0000       0.011258         0.3064
  73   0.0000       0.021441         0.5835
  74   0.0000       0.022882         0.6227
  75   0.0000       0.029403         0.8001
  76   0.0000       0.036885         1.0037

E(0)                                       ...  -3028.438298311
E(0)                                       ...  -3028.438298311
E(CORR)(strong-pairs)                      ...     -2.873515761
E(CORR)(weak-pairs)                        ...     -0.036222686
E(CORR)(corrected)                         ...     -2.909738446
E(TOT)                                     ...  -3031.348036757
E(CCSD(T))                                 ...  -3031.467836690
FINAL SINGLE POINT ENERGY     -3031.467836690474

DIPOLE MOMENT
-------------
                                X             Y             Z
Electronic contribution:     41.89099       4.71277       1.43863
Nuclear contribution   :    -45.97069      -5.51770      -1.98507
                        -----------------------------------------
Total Dipole Moment    :     -4.07970      -0.80493      -0.54643
                        -----------------------------------------
Magnitude (a.u.)       :      4.19410
Magnitude (Debye)      :     10.66055

Rotational constants in cm-1:     0.019125     0.011146     0.010470
Rotational constants in MHz :   573.339069   334.140033   313.880149

                             ****ORCA TERMINATED NORMALLY****
TOTAL RUN TIME: 0 days 19 hours 14 minutes 15 seconds 1 msec
