                         Program Version 4.1.2  - RELEASE  -
|  1> ! aug-cc-pVTZ aug-cc-pVTZ/C DLPNO-CCSD(T1) TightSCF NormalPNO UNO MiniPrint AutoAux
|  2> %pal nproc 10 end
|  3> %maxcore 20000
|  4> %mdci
|  5>      density none
|  6> end
|  7>
|  8> * xyz 0 6
|  9>  O     -0.34378200     -0.09212100     -0.54963000
| 10>  C     -1.20172100     -1.04648900     -0.50276400
| 11>  C     -3.17187600      0.04668800     -0.04075600
| 12>  C     -2.25793100      1.04361900     -0.22006400
| 13>  C     -2.08754600      1.70721300     -1.55293100
| 14> Fe      1.46138500      0.06344200      0.05949900
| 15> Cl      2.08421300      1.98342100     -0.78875300
| 16>  C     -1.57490400      1.72721600      0.92748600
| 17> Cl      2.38668300     -1.75000400     -0.77293700
| 18> Cl      1.42604100      0.03313400      2.26108100
| 19>  H     -3.72599500     -0.27779400     -0.91914000
| 20>  H     -2.26355300      2.48650100      1.32441400
| 21>  H     -1.32016600      1.05450700      1.74769100
| 22>  H     -0.66640700      2.23945800      0.60426000
| 23>  H     -2.51066900      2.71840900     -1.47551600
| 24>  H     -1.03110400      1.81810400     -1.81079500
| 25>  H     -2.61756100      1.18889900     -2.35580100
| 26>  C     -3.73518900     -0.40914300      1.27755200
| 27>  H     -4.66440800      0.13833100      1.48632400
| 28>  H     -3.99323600     -1.47302300      1.26441700
| 29>  H     -3.05933900     -0.23147900      2.11697000
| 30>  C     -1.18701700     -1.96236200      0.68535900
| 31>  H     -2.06902300     -2.60077600      0.73824800
| 32>  H     -0.30462800     -2.60472500      0.54392700
| 33>  H     -1.03845900     -1.41795500      1.61821700
| 34>  C     -1.63787400     -1.62699200     -1.81909700
| 35>  H     -0.79733600     -2.25550600     -2.14868000
| 36>  H     -2.52782700     -2.25251400     -1.72964600
| 37>  H     -1.77962800     -0.85282400     -2.57319500
| 38> *
| 39>
| 40>
| 41>                          ****END OF INPUT****

CARTESIAN COORDINATES (ANGSTROEM)
---------------------------------
  O     -0.343782   -0.092121   -0.549630
  C     -1.201721   -1.046489   -0.502764
  C     -3.171876    0.046688   -0.040756
  C     -2.257931    1.043619   -0.220064
  C     -2.087546    1.707213   -1.552931
  Fe     1.461385    0.063442    0.059499
  Cl     2.084213    1.983421   -0.788753
  C     -1.574904    1.727216    0.927486
  Cl     2.386683   -1.750004   -0.772937
  Cl     1.426041    0.033134    2.261081
  H     -3.725995   -0.277794   -0.919140
  H     -2.263553    2.486501    1.324414
  H     -1.320166    1.054507    1.747691
  H     -0.666407    2.239458    0.604260
  H     -2.510669    2.718409   -1.475516
  H     -1.031104    1.818104   -1.810795
  H     -2.617561    1.188899   -2.355801
  C     -3.735189   -0.409143    1.277552
  H     -4.664408    0.138331    1.486324
  H     -3.993236   -1.473023    1.264417
  H     -3.059339   -0.231479    2.116970
  C     -1.187017   -1.962362    0.685359
  H     -2.069023   -2.600776    0.738248
  H     -0.304628   -2.604725    0.543927
  H     -1.038459   -1.417955    1.618217
  C     -1.637874   -1.626992   -1.819097
  H     -0.797336   -2.255506   -2.148680
  H     -2.527827   -2.252514   -1.729646
  H     -1.779628   -0.852824   -2.573195

ORBITAL ENERGIES
----------------
                 SPIN UP ORBITALS
  NO   OCC          E(Eh)            E(eV)
   0   1.0000    -261.565515     -7117.5595
   1   1.0000    -104.785589     -2851.3608
   2   1.0000    -104.785363     -2851.3547
   3   1.0000    -104.784171     -2851.3223
   4   1.0000     -32.233322      -877.1133
   5   1.0000     -27.709597      -754.0165
   6   1.0000     -27.708763      -753.9938
   7   1.0000     -27.708654      -753.9908
   8   1.0000     -20.584066      -560.1209
   9   1.0000     -11.418562      -310.7149
  10   1.0000     -11.305850      -307.6478
  11   1.0000     -11.271057      -306.7010
  12   1.0000     -11.266978      -306.5901
  13   1.0000     -11.256721      -306.3109
  14   1.0000     -11.251642      -306.1727
  15   1.0000     -11.248463      -306.0862
  16   1.0000     -11.244884      -305.9889
  17   1.0000     -10.512232      -286.0524
  18   1.0000     -10.511955      -286.0448
  19   1.0000     -10.510733      -286.0116
  20   1.0000      -7.979095      -217.1222
  21   1.0000      -7.978823      -217.1148
  22   1.0000      -7.978301      -217.1006
  23   1.0000      -7.978257      -217.0994
  24   1.0000      -7.978051      -217.0938
  25   1.0000      -7.977964      -217.0914
  26   1.0000      -7.977524      -217.0795
  27   1.0000      -7.976854      -217.0612
  28   1.0000      -7.976781      -217.0593
  29   1.0000      -4.588564      -124.8612
  30   1.0000      -3.201610       -87.1202
  31   1.0000      -3.200236       -87.0829
  32   1.0000      -3.199902       -87.0738
  33   1.0000      -1.441242       -39.2182
  34   1.0000      -1.147254       -31.2184
  35   1.0000      -1.096724       -29.8434
  36   1.0000      -1.058785       -28.8110
  37   1.0000      -1.053351       -28.6631
  38   1.0000      -1.051797       -28.6209
  39   1.0000      -1.029721       -28.0201
  40   1.0000      -1.007145       -27.4058
  41   1.0000      -0.973519       -26.4908
  42   1.0000      -0.935381       -25.4530
  43   1.0000      -0.918050       -24.9814
  44   1.0000      -0.917924       -24.9780
  45   1.0000      -0.911650       -24.8072
  46   1.0000      -0.907792       -24.7023
  47   1.0000      -0.907399       -24.6916
  48   1.0000      -0.801303       -21.8046
  49   1.0000      -0.745199       -20.2779
  50   1.0000      -0.701228       -19.0814
  51   1.0000      -0.697736       -18.9863
  52   1.0000      -0.689432       -18.7604
  53   1.0000      -0.665379       -18.1059
  54   1.0000      -0.633750       -17.2452
  55   1.0000      -0.619904       -16.8684
  56   1.0000      -0.602588       -16.3973
  57   1.0000      -0.599286       -16.3074
  58   1.0000      -0.582588       -15.8530
  59   1.0000      -0.577414       -15.7122
  60   1.0000      -0.568073       -15.4581
  61   1.0000      -0.566112       -15.4047
  62   1.0000      -0.549219       -14.9450
  63   1.0000      -0.546487       -14.8707
  64   1.0000      -0.539990       -14.6939
  65   1.0000      -0.521302       -14.1854
  66   1.0000      -0.510667       -13.8959
  67   1.0000      -0.492586       -13.4040
  68   1.0000      -0.472764       -12.8646
  69   1.0000      -0.464848       -12.6492
  70   1.0000      -0.440938       -11.9985
  71   1.0000      -0.434777       -11.8309
  72   1.0000      -0.433116       -11.7857
  73   1.0000      -0.425283       -11.5725
  74   1.0000      -0.423265       -11.5176
  75   1.0000      -0.423038       -11.5115
  76   1.0000      -0.364079        -9.9071
  77   0.0000       0.012141         0.3304
  78   0.0000       0.022894         0.6230
  79   0.0000       0.023528         0.6402
  80   0.0000       0.030378         0.8266
  81   0.0000       0.039415         1.0725

                 SPIN DOWN ORBITALS
  NO   OCC          E(Eh)            E(eV)
   0   1.0000    -261.561956     -7117.4627
   1   1.0000    -104.784131     -2851.3212
   2   1.0000    -104.783889     -2851.3146
   3   1.0000    -104.782710     -2851.2825
   4   1.0000     -32.071317      -872.7049
   5   1.0000     -27.549244      -749.6530
   6   1.0000     -27.549205      -749.6520
   7   1.0000     -27.548942      -749.6448
   8   1.0000     -20.579887      -560.0072
   9   1.0000     -11.418393      -310.7103
  10   1.0000     -11.306011      -307.6522
  11   1.0000     -11.270966      -306.6986
  12   1.0000     -11.266960      -306.5896
  13   1.0000     -11.256302      -306.2995
  14   1.0000     -11.251688      -306.1740
  15   1.0000     -11.248433      -306.0854
  16   1.0000     -11.244885      -305.9889
  17   1.0000     -10.510670      -286.0099
  18   1.0000     -10.510378      -286.0019
  19   1.0000     -10.509177      -285.9692
  20   1.0000      -7.976575      -217.0536
  21   1.0000      -7.976270      -217.0453
  22   1.0000      -7.975918      -217.0358
  23   1.0000      -7.975847      -217.0338
  24   1.0000      -7.975637      -217.0281
  25   1.0000      -7.975538      -217.0254
  26   1.0000      -7.975166      -217.0153
  27   1.0000      -7.974367      -216.9936
  28   1.0000      -7.974278      -216.9911
  29   1.0000      -4.146365      -112.8283
  30   1.0000      -2.668001       -72.6000
  31   1.0000      -2.667894       -72.5971
  32   1.0000      -2.667591       -72.5888
  33   1.0000      -1.430607       -38.9288
  34   1.0000      -1.146533       -31.1987
  35   1.0000      -1.094169       -29.7738
  36   1.0000      -1.043690       -28.4002
  37   1.0000      -1.031653       -28.0727
  38   1.0000      -1.030788       -28.0492
  39   1.0000      -1.029063       -28.0022
  40   1.0000      -1.006355       -27.3843
  41   1.0000      -0.973421       -26.4881
  42   1.0000      -0.912897       -24.8412
  43   1.0000      -0.815202       -22.1828
  44   1.0000      -0.745261       -20.2796
  45   1.0000      -0.703768       -19.1505
  46   1.0000      -0.698439       -19.0055
  47   1.0000      -0.687447       -18.7064
  48   1.0000      -0.665384       -18.1060
  49   1.0000      -0.633677       -17.2432
  50   1.0000      -0.619678       -16.8623
  51   1.0000      -0.602154       -16.3855
  52   1.0000      -0.599200       -16.3051
  53   1.0000      -0.582164       -15.8415
  54   1.0000      -0.576925       -15.6989
  55   1.0000      -0.567981       -15.4555
  56   1.0000      -0.565883       -15.3984
  57   1.0000      -0.547126       -14.8880
  58   1.0000      -0.545021       -14.8308
  59   1.0000      -0.539232       -14.6732
  60   1.0000      -0.514176       -13.9914
  61   1.0000      -0.510695       -13.8967
  62   1.0000      -0.490214       -13.3394
  63   1.0000      -0.477197       -12.9852
  64   1.0000      -0.475467       -12.9381
  65   1.0000      -0.447401       -12.1744
  66   1.0000      -0.444696       -12.1008
  67   1.0000      -0.442295       -12.0355
  68   1.0000      -0.428314       -11.6550
  69   1.0000      -0.422817       -11.5054
  70   1.0000      -0.408675       -11.1206
  71   1.0000      -0.362781        -9.8718
  72   0.0000       0.012136         0.3302
  73   0.0000       0.022854         0.6219
  74   0.0000       0.023501         0.6395
  75   0.0000       0.030393         0.8270
  76   0.0000       0.039387         1.0718

E(0)                                       ...  -3028.426447350
E(0)                                       ...  -3028.426447350
E(CORR)(strong-pairs)                      ...     -2.872853214
E(CORR)(weak-pairs)                        ...     -0.036294357
E(CORR)(corrected)                         ...     -2.909147571
E(TOT)                                     ...  -3031.335594921
E(CCSD(T))                                 ...  -3031.455209357
FINAL SINGLE POINT ENERGY     -3031.455209357289

DIPOLE MOMENT
-------------
                                X             Y             Z
Electronic contribution:     42.77270       2.14224       2.17440
Nuclear contribution   :    -46.63726      -2.84040      -2.70290
                        -----------------------------------------
Total Dipole Moment    :     -3.86457      -0.69816      -0.52849
                        -----------------------------------------
Magnitude (a.u.)       :      3.96253
Magnitude (Debye)      :     10.07194

Rotational constants in cm-1:     0.019603     0.011096     0.010421
Rotational constants in MHz :   587.695477   332.658751   312.422691

                             ****ORCA TERMINATED NORMALLY****
TOTAL RUN TIME: 0 days 19 hours 57 minutes 17 seconds 21 msec
