                         Program Version 4.1.2  - RELEASE  -
|  1> ! aug-cc-pVTZ aug-cc-pVTZ/C DLPNO-CCSD(T1) TightSCF NormalPNO UNO MiniPrint AutoAux
|  2> %pal nproc 10 end
|  3> %maxcore 20000
|  4> %mdci
|  5>      density none
|  6> end
|  7>
|  8> * xyz 0 6
|  9>  O     -0.37071200     -0.22915900     -0.56750200
| 10>  C     -1.41149800     -1.19990900     -0.39261500
| 11>  C     -2.78617200     -0.13885000     -0.17599300
| 12>  C     -2.00545200      1.13376400     -0.26322800
| 13>  C     -1.90395300      1.84778900     -1.55511300
| 14> Fe      1.37675400      0.03854100      0.02991200
| 15> Cl      1.78945100      2.04951800     -0.81594300
| 16>  C     -1.57158200      1.84837800      0.95636400
| 17> Cl      2.58135800     -1.63899300     -0.70938000
| 18> Cl      1.30492200      0.13524800      2.24792000
| 19>  H     -3.40642000     -0.25166600     -1.06883500
| 20>  H     -2.44406700      2.42690400      1.30439100
| 21>  H     -1.28203700      1.17257300      1.76221300
| 22>  H     -0.75630300      2.54394300      0.74756700
| 23>  H     -2.65637700      2.65430900     -1.53481500
| 24>  H     -0.91939300      2.31358500     -1.66046200
| 25>  H     -2.11604500      1.20024400     -2.40671700
| 26>  C     -3.60769600     -0.36754500      1.08475200
| 27>  H     -4.41302000      0.37149000      1.17120000
| 28>  H     -4.07362300     -1.35628200      1.04396800
| 29>  H     -3.00542700     -0.32119000      1.99472600
| 30>  C     -1.16899300     -2.07838200      0.81673400
| 31>  H     -1.99166200     -2.78387800      0.96870100
| 32>  H     -0.25297000     -2.65543900      0.64109900
| 33>  H     -1.01637500     -1.49364600      1.72554700
| 34>  C     -1.57513200     -1.99295900     -1.67449300
| 35>  H     -0.64930300     -2.54873100     -1.86211800
| 36>  H     -2.40532100     -2.70383000     -1.59997200
| 37>  H     -1.74613200     -1.32902200     -2.52679900
| 38> *
| 39>
| 40>
| 41>                          ****END OF INPUT****

CARTESIAN COORDINATES (ANGSTROEM)
---------------------------------
  O     -0.370712   -0.229159   -0.567502
  C     -1.411498   -1.199909   -0.392615
  C     -2.786172   -0.138850   -0.175993
  C     -2.005452    1.133764   -0.263228
  C     -1.903953    1.847789   -1.555113
  Fe     1.376754    0.038541    0.029912
  Cl     1.789451    2.049518   -0.815943
  C     -1.571582    1.848378    0.956364
  Cl     2.581358   -1.638993   -0.709380
  Cl     1.304922    0.135248    2.247920
  H     -3.406420   -0.251666   -1.068835
  H     -2.444067    2.426904    1.304391
  H     -1.282037    1.172573    1.762213
  H     -0.756303    2.543943    0.747567
  H     -2.656377    2.654309   -1.534815
  H     -0.919393    2.313585   -1.660462
  H     -2.116045    1.200244   -2.406717
  C     -3.607696   -0.367545    1.084752
  H     -4.413020    0.371490    1.171200
  H     -4.073623   -1.356282    1.043968
  H     -3.005427   -0.321190    1.994726
  C     -1.168993   -2.078382    0.816734
  H     -1.991662   -2.783878    0.968701
  H     -0.252970   -2.655439    0.641099
  H     -1.016375   -1.493646    1.725547
  C     -1.575132   -1.992959   -1.674493
  H     -0.649303   -2.548731   -1.862118
  H     -2.405321   -2.703830   -1.599972
  H     -1.746132   -1.329022   -2.526799

ORBITAL ENERGIES
----------------
                 SPIN UP ORBITALS
  NO   OCC          E(Eh)            E(eV)
   0   1.0000    -261.546373     -7117.0386
   1   1.0000    -104.775394     -2851.0834
   2   1.0000    -104.773948     -2851.0441
   3   1.0000    -104.771005     -2850.9640
   4   1.0000     -32.214274      -876.5950
   5   1.0000     -27.690143      -753.4871
   6   1.0000     -27.690049      -753.4845
   7   1.0000     -27.689703      -753.4751
   8   1.0000     -20.550666      -559.2121
   9   1.0000     -11.408246      -310.4342
  10   1.0000     -11.345126      -308.7166
  11   1.0000     -11.293391      -307.3088
  12   1.0000     -11.281937      -306.9971
  13   1.0000     -11.278999      -306.9172
  14   1.0000     -11.264316      -306.5176
  15   1.0000     -11.238763      -305.8223
  16   1.0000     -11.235177      -305.7247
  17   1.0000     -10.501948      -285.7725
  18   1.0000     -10.500601      -285.7359
  19   1.0000     -10.497597      -285.6541
  20   1.0000      -7.968784      -216.8416
  21   1.0000      -7.968024      -216.8209
  22   1.0000      -7.967942      -216.8187
  23   1.0000      -7.967493      -216.8065
  24   1.0000      -7.966634      -216.7831
  25   1.0000      -7.966601      -216.7822
  26   1.0000      -7.964396      -216.7222
  27   1.0000      -7.963719      -216.7038
  28   1.0000      -7.963635      -216.7015
  29   1.0000      -4.569712      -124.3482
  30   1.0000      -3.182115       -86.5897
  31   1.0000      -3.181939       -86.5850
  32   1.0000      -3.181337       -86.5686
  33   1.0000      -1.353467       -36.8297
  34   1.0000      -1.176930       -32.0259
  35   1.0000      -1.088057       -29.6075
  36   1.0000      -1.046234       -28.4695
  37   1.0000      -1.040908       -28.3246
  38   1.0000      -1.038719       -28.2650
  39   1.0000      -1.038324       -28.2542
  40   1.0000      -1.016110       -27.6498
  41   1.0000      -0.966313       -26.2947
  42   1.0000      -0.931338       -25.3430
  43   1.0000      -0.903426       -24.5835
  44   1.0000      -0.899175       -24.4678
  45   1.0000      -0.898910       -24.4606
  46   1.0000      -0.891103       -24.2481
  47   1.0000      -0.890679       -24.2366
  48   1.0000      -0.794737       -21.6259
  49   1.0000      -0.759452       -20.6658
  50   1.0000      -0.700723       -19.0676
  51   1.0000      -0.688090       -18.7239
  52   1.0000      -0.671574       -18.2745
  53   1.0000      -0.637315       -17.3422
  54   1.0000      -0.631590       -17.1864
  55   1.0000      -0.625078       -17.0092
  56   1.0000      -0.601253       -16.3609
  57   1.0000      -0.597855       -16.2685
  58   1.0000      -0.594368       -16.1736
  59   1.0000      -0.581286       -15.8176
  60   1.0000      -0.576268       -15.6811
  61   1.0000      -0.558222       -15.1900
  62   1.0000      -0.548079       -14.9140
  63   1.0000      -0.539002       -14.6670
  64   1.0000      -0.529992       -14.4218
  65   1.0000      -0.520997       -14.1770
  66   1.0000      -0.504894       -13.7389
  67   1.0000      -0.474188       -12.9033
  68   1.0000      -0.462889       -12.5959
  69   1.0000      -0.449465       -12.2306
  70   1.0000      -0.432308       -11.7637
  71   1.0000      -0.426176       -11.5968
  72   1.0000      -0.421652       -11.4737
  73   1.0000      -0.415452       -11.3050
  74   1.0000      -0.412805       -11.2330
  75   1.0000      -0.410893       -11.1810
  76   1.0000      -0.409877       -11.1533
  77   0.0000       0.006371         0.1734
  78   0.0000       0.018947         0.5156
  79   0.0000       0.021493         0.5849
  80   0.0000       0.030514         0.8303
  81   0.0000       0.031766         0.8644

                 SPIN DOWN ORBITALS
  NO   OCC          E(Eh)            E(eV)
   0   1.0000    -261.542827     -7116.9421
   1   1.0000    -104.774098     -2851.0482
   2   1.0000    -104.772589     -2851.0071
   3   1.0000    -104.769562     -2850.9247
   4   1.0000     -32.052275      -872.1867
   5   1.0000     -27.530375      -749.1396
   6   1.0000     -27.530159      -749.1337
   7   1.0000     -27.529675      -749.1205
   8   1.0000     -20.544767      -559.0515
   9   1.0000     -11.408290      -310.4353
  10   1.0000     -11.344931      -308.7113
  11   1.0000     -11.293239      -307.3047
  12   1.0000     -11.281916      -306.9966
  13   1.0000     -11.279010      -306.9175
  14   1.0000     -11.264317      -306.5176
  15   1.0000     -11.238707      -305.8208
  16   1.0000     -11.235158      -305.7242
  17   1.0000     -10.500555      -285.7346
  18   1.0000     -10.499138      -285.6961
  19   1.0000     -10.496053      -285.6121
  20   1.0000      -7.966500      -216.7795
  21   1.0000      -7.965929      -216.7639
  22   1.0000      -7.965849      -216.7618
  23   1.0000      -7.965017      -216.7391
  24   1.0000      -7.964496      -216.7250
  25   1.0000      -7.964433      -216.7232
  26   1.0000      -7.962039      -216.6581
  27   1.0000      -7.961265      -216.6370
  28   1.0000      -7.961205      -216.6354
  29   1.0000      -4.127607      -112.3179
  30   1.0000      -2.649497       -72.0965
  31   1.0000      -2.649460       -72.0955
  32   1.0000      -2.648508       -72.0696
  33   1.0000      -1.337974       -36.4081
  34   1.0000      -1.175512       -31.9873
  35   1.0000      -1.085490       -29.5377
  36   1.0000      -1.037125       -28.2216
  37   1.0000      -1.032067       -28.0840
  38   1.0000      -1.021957       -27.8089
  39   1.0000      -1.018320       -27.7099
  40   1.0000      -1.015098       -27.6222
  41   1.0000      -0.965621       -26.2759
  42   1.0000      -0.927626       -25.2420
  43   1.0000      -0.797897       -21.7119
  44   1.0000      -0.764565       -20.8049
  45   1.0000      -0.700873       -19.0717
  46   1.0000      -0.687527       -18.7085
  47   1.0000      -0.672533       -18.3006
  48   1.0000      -0.639028       -17.3888
  49   1.0000      -0.631713       -17.1898
  50   1.0000      -0.623100       -16.9554
  51   1.0000      -0.601404       -16.3650
  52   1.0000      -0.596896       -16.2424
  53   1.0000      -0.594121       -16.1668
  54   1.0000      -0.580256       -15.7896
  55   1.0000      -0.575291       -15.6545
  56   1.0000      -0.557981       -15.1834
  57   1.0000      -0.545496       -14.8437
  58   1.0000      -0.538474       -14.6526
  59   1.0000      -0.528071       -14.3695
  60   1.0000      -0.515646       -14.0315
  61   1.0000      -0.501072       -13.6349
  62   1.0000      -0.471042       -12.8177
  63   1.0000      -0.465192       -12.6585
  64   1.0000      -0.458682       -12.4814
  65   1.0000      -0.436757       -11.8848
  66   1.0000      -0.433876       -11.8064
  67   1.0000      -0.432067       -11.7571
  68   1.0000      -0.431513       -11.7421
  69   1.0000      -0.411400       -11.1948
  70   1.0000      -0.401716       -10.9313
  71   1.0000      -0.398938       -10.8557
  72   0.0000       0.006337         0.1724
  73   0.0000       0.018765         0.5106
  74   0.0000       0.021474         0.5843
  75   0.0000       0.030484         0.8295
  76   0.0000       0.030828         0.8389

E(0)                                       ...  -3028.432535840
E(0)                                       ...  -3028.432535840
E(CORR)(strong-pairs)                      ...     -2.870668623
E(CORR)(weak-pairs)                        ...     -0.035454498
E(CORR)(corrected)                         ...     -2.906123121
E(TOT)                                     ...  -3031.338658961
E(CCSD(T))                                 ...  -3031.456921223
FINAL SINGLE POINT ENERGY     -3031.456921223043

DIPOLE MOMENT
-------------
                                X             Y             Z
Electronic contribution:     40.04332       4.10320       1.96332
Nuclear contribution   :    -44.83093      -3.55786      -2.36786
                        -----------------------------------------
Total Dipole Moment    :     -4.78761       0.54534      -0.40454
                        -----------------------------------------
Magnitude (a.u.)       :      4.83552
Magnitude (Debye)      :     12.29091

Rotational constants in cm-1:     0.018935     0.011956     0.010743
Rotational constants in MHz :   567.647955   358.423243   322.079908

                             ****ORCA TERMINATED NORMALLY****
TOTAL RUN TIME: 0 days 20 hours 40 minutes 3 seconds 69 msec
