                         Program Version 4.1.2  - RELEASE  -
|  1> ! aug-cc-pVTZ aug-cc-pVTZ/C DLPNO-CCSD(T1) TightSCF NormalPNO UNO MiniPrint AutoAux
|  2> %pal nproc 10 end
|  3> %maxcore 20000
|  4> %mdci
|  5>      density none
|  6> end
|  7>
|  8> * xyz 0 6
|  9>  O     -0.36350500     -0.06264300     -0.48342400
| 10>  C     -1.25329600     -1.02770900     -0.44750300
| 11>  C     -3.10057900      0.02628900     -0.13265200
| 12>  C     -2.18301100      1.05463300     -0.23132600
| 13>  C     -1.95301400      1.75357600     -1.53307400
| 14> Fe      1.44434300      0.05135800      0.05658600
| 15> Cl      2.05035900      1.98408900     -0.79733900
| 16>  C     -1.60514000      1.72211000      0.97731500
| 17> Cl      2.35462300     -1.76596800     -0.79230600
| 18> Cl      1.44301500      0.03351200      2.26474200
| 19>  H     -3.61576300     -0.24823500     -1.05040700
| 20>  H     -2.35923400      2.43119200      1.34940900
| 21>  H     -1.37828000      1.02808800      1.78759300
| 22>  H     -0.70044500      2.28071700      0.73230600
| 23>  H     -2.52660000      2.69150700     -1.49166100
| 24>  H     -0.90084100      2.01092600     -1.67140900
| 25>  H     -2.31855300      1.18387900     -2.39014200
| 26>  C     -3.78534000     -0.40441400      1.13827600
| 27>  H     -4.70410700      0.18077300      1.27781000
| 28>  H     -4.08199400     -1.45704100      1.09640900
| 29>  H     -3.16877500     -0.26004700      2.02790200
| 30>  C     -1.22398100     -1.93760700      0.74802500
| 31>  H     -2.08642000     -2.60377200      0.79398500
| 32>  H     -0.31972300     -2.55181200      0.62381000
| 33>  H     -1.10600900     -1.38502800      1.68063000
| 34>  C     -1.56278600     -1.66926600     -1.77412600
| 35>  H     -0.66739600     -2.25292400     -2.03260000
| 36>  H     -2.42261300     -2.34093800     -1.72433900
| 37>  H     -1.70119500     -0.92489600     -2.55939700
| 38> *
| 39>
| 40>
| 41>                          ****END OF INPUT****

CARTESIAN COORDINATES (ANGSTROEM)
---------------------------------
  O     -0.363505   -0.062643   -0.483424
  C     -1.253296   -1.027709   -0.447503
  C     -3.100579    0.026289   -0.132652
  C     -2.183011    1.054633   -0.231326
  C     -1.953014    1.753576   -1.533074
  Fe     1.444343    0.051358    0.056586
  Cl     2.050359    1.984089   -0.797339
  C     -1.605140    1.722110    0.977315
  Cl     2.354623   -1.765968   -0.792306
  Cl     1.443015    0.033512    2.264742
  H     -3.615763   -0.248235   -1.050407
  H     -2.359234    2.431192    1.349409
  H     -1.378280    1.028088    1.787593
  H     -0.700445    2.280717    0.732306
  H     -2.526600    2.691507   -1.491661
  H     -0.900841    2.010926   -1.671409
  H     -2.318553    1.183879   -2.390142
  C     -3.785340   -0.404414    1.138276
  H     -4.704107    0.180773    1.277810
  H     -4.081994   -1.457041    1.096409
  H     -3.168775   -0.260047    2.027902
  C     -1.223981   -1.937607    0.748025
  H     -2.086420   -2.603772    0.793985
  H     -0.319723   -2.551812    0.623810
  H     -1.106009   -1.385028    1.680630
  C     -1.562786   -1.669266   -1.774126
  H     -0.667396   -2.252924   -2.032600
  H     -2.422613   -2.340938   -1.724339
  H     -1.701195   -0.924896   -2.559397

ORBITAL ENERGIES
----------------
                 SPIN UP ORBITALS
  NO   OCC          E(Eh)            E(eV)
   0   1.0000    -261.559093     -7117.3848
   1   1.0000    -104.781689     -2851.2547
   2   1.0000    -104.781192     -2851.2412
   3   1.0000    -104.781080     -2851.2382
   4   1.0000     -32.226944      -876.9397
   5   1.0000     -27.703069      -753.8388
   6   1.0000     -27.702480      -753.8228
   7   1.0000     -27.702350      -753.8193
   8   1.0000     -20.568564      -559.6991
   9   1.0000     -11.408266      -310.4347
  10   1.0000     -11.336413      -308.4795
  11   1.0000     -11.265411      -306.5474
  12   1.0000     -11.264336      -306.5182
  13   1.0000     -11.260871      -306.4239
  14   1.0000     -11.256819      -306.3136
  15   1.0000     -11.256236      -306.2978
  16   1.0000     -11.254470      -306.2497
  17   1.0000     -10.508250      -285.9440
  18   1.0000     -10.507797      -285.9317
  19   1.0000     -10.507611      -285.9266
  20   1.0000      -7.975097      -217.0134
  21   1.0000      -7.974674      -217.0019
  22   1.0000      -7.974405      -216.9946
  23   1.0000      -7.974345      -216.9930
  24   1.0000      -7.974263      -216.9907
  25   1.0000      -7.973864      -216.9799
  26   1.0000      -7.973809      -216.9784
  27   1.0000      -7.973724      -216.9761
  28   1.0000      -7.973643      -216.9739
  29   1.0000      -4.582306      -124.6909
  30   1.0000      -3.195173       -86.9451
  31   1.0000      -3.194181       -86.9181
  32   1.0000      -3.193720       -86.9055
  33   1.0000      -1.421578       -38.6831
  34   1.0000      -1.158533       -31.5253
  35   1.0000      -1.092739       -29.7349
  36   1.0000      -1.054303       -28.6890
  37   1.0000      -1.048602       -28.5339
  38   1.0000      -1.047691       -28.5091
  39   1.0000      -1.034847       -28.1596
  40   1.0000      -1.001037       -27.2396
  41   1.0000      -0.982909       -26.7463
  42   1.0000      -0.931565       -25.3492
  43   1.0000      -0.916437       -24.9375
  44   1.0000      -0.911878       -24.8135
  45   1.0000      -0.911859       -24.8129
  46   1.0000      -0.902506       -24.5584
  47   1.0000      -0.901840       -24.5403
  48   1.0000      -0.793272       -21.5860
  49   1.0000      -0.754157       -20.5216
  50   1.0000      -0.699925       -19.0459
  51   1.0000      -0.691939       -18.8286
  52   1.0000      -0.683292       -18.5933
  53   1.0000      -0.665237       -18.1020
  54   1.0000      -0.638697       -17.3798
  55   1.0000      -0.620234       -16.8774
  56   1.0000      -0.601276       -16.3616
  57   1.0000      -0.595943       -16.2164
  58   1.0000      -0.582816       -15.8592
  59   1.0000      -0.576016       -15.6742
  60   1.0000      -0.574499       -15.6329
  61   1.0000      -0.568604       -15.4725
  62   1.0000      -0.551150       -14.9975
  63   1.0000      -0.547301       -14.8928
  64   1.0000      -0.544734       -14.8230
  65   1.0000      -0.521718       -14.1967
  66   1.0000      -0.515033       -14.0147
  67   1.0000      -0.487815       -13.2741
  68   1.0000      -0.469199       -12.7675
  69   1.0000      -0.458758       -12.4834
  70   1.0000      -0.437526       -11.9057
  71   1.0000      -0.431312       -11.7366
  72   1.0000      -0.429120       -11.6770
  73   1.0000      -0.422200       -11.4886
  74   1.0000      -0.419820       -11.4239
  75   1.0000      -0.419425       -11.4131
  76   1.0000      -0.368079       -10.0159
  77   0.0000       0.011271         0.3067
  78   0.0000       0.021723         0.5911
  79   0.0000       0.023197         0.6312
  80   0.0000       0.030441         0.8283
  81   0.0000       0.038732         1.0539

                 SPIN DOWN ORBITALS
  NO   OCC          E(Eh)            E(eV)
   0   1.0000    -261.555541     -7117.2881
   1   1.0000    -104.780245     -2851.2154
   2   1.0000    -104.779765     -2851.2024
   3   1.0000    -104.779674     -2851.1999
   4   1.0000     -32.064948      -872.5316
   5   1.0000     -27.542916      -749.4809
   6   1.0000     -27.542836      -749.4787
   7   1.0000     -27.542503      -749.4696
   8   1.0000     -20.563824      -559.5701
   9   1.0000     -11.408215      -310.4333
  10   1.0000     -11.336505      -308.4820
  11   1.0000     -11.264906      -306.5337
  12   1.0000     -11.264249      -306.5158
  13   1.0000     -11.260837      -306.4230
  14   1.0000     -11.256794      -306.3129
  15   1.0000     -11.256292      -306.2993
  16   1.0000     -11.254474      -306.2498
  17   1.0000     -10.506703      -285.9019
  18   1.0000     -10.506267      -285.8901
  19   1.0000     -10.506110      -285.8858
  20   1.0000      -7.972619      -216.9460
  21   1.0000      -7.972164      -216.9336
  22   1.0000      -7.972096      -216.9318
  23   1.0000      -7.971968      -216.9283
  24   1.0000      -7.971881      -216.9259
  25   1.0000      -7.971557      -216.9171
  26   1.0000      -7.971479      -216.9150
  27   1.0000      -7.971353      -216.9115
  28   1.0000      -7.971263      -216.9091
  29   1.0000      -4.140136      -112.6588
  30   1.0000      -2.661865       -72.4330
  31   1.0000      -2.661711       -72.4288
  32   1.0000      -2.661345       -72.4189
  33   1.0000      -1.409549       -38.3558
  34   1.0000      -1.157394       -31.4943
  35   1.0000      -1.090141       -29.6643
  36   1.0000      -1.039480       -28.2857
  37   1.0000      -1.034162       -28.1410
  38   1.0000      -1.027542       -27.9608
  39   1.0000      -1.027297       -27.9542
  40   1.0000      -1.000278       -27.2190
  41   1.0000      -0.982827       -26.7441
  42   1.0000      -0.921043       -25.0629
  43   1.0000      -0.806411       -21.9436
  44   1.0000      -0.754344       -20.5267
  45   1.0000      -0.700216       -19.0539
  46   1.0000      -0.694087       -18.8871
  47   1.0000      -0.682463       -18.5708
  48   1.0000      -0.664830       -18.0909
  49   1.0000      -0.638606       -17.3773
  50   1.0000      -0.620153       -16.8752
  51   1.0000      -0.600356       -16.3365
  52   1.0000      -0.595871       -16.2145
  53   1.0000      -0.582643       -15.8545
  54   1.0000      -0.575950       -15.6724
  55   1.0000      -0.574191       -15.6245
  56   1.0000      -0.568244       -15.4627
  57   1.0000      -0.550764       -14.9871
  58   1.0000      -0.547128       -14.8881
  59   1.0000      -0.539804       -14.6888
  60   1.0000      -0.521206       -14.1827
  61   1.0000      -0.509871       -13.8743
  62   1.0000      -0.484072       -13.1723
  63   1.0000      -0.473318       -12.8796
  64   1.0000      -0.469654       -12.7799
  65   1.0000      -0.443294       -12.0626
  66   1.0000      -0.441099       -12.0029
  67   1.0000      -0.438660       -11.9366
  68   1.0000      -0.426030       -11.5929
  69   1.0000      -0.418395       -11.3851
  70   1.0000      -0.405661       -11.0386
  71   1.0000      -0.366835        -9.9821
  72   0.0000       0.011272         0.3067
  73   0.0000       0.021670         0.5897
  74   0.0000       0.023173         0.6306
  75   0.0000       0.030475         0.8293
  76   0.0000       0.038701         1.0531

E(0)                                       ...  -3028.414782072
E(0)                                       ...  -3028.414782072
E(CORR)(strong-pairs)                      ...     -2.873981871
E(CORR)(weak-pairs)                        ...     -0.035922284
E(CORR)(corrected)                         ...     -2.909904154
E(TOT)                                     ...  -3031.324686227
E(CCSD(T))                                 ...  -3031.444673065
FINAL SINGLE POINT ENERGY     -3031.444673065002

DIPOLE MOMENT
-------------
                                X             Y             Z
Electronic contribution:     42.06565       2.29813       2.14174
Nuclear contribution   :    -46.20724      -2.67389      -2.64012
                        -----------------------------------------
Total Dipole Moment    :     -4.14159      -0.37576      -0.49838
                        -----------------------------------------
Magnitude (a.u.)       :      4.18836
Magnitude (Debye)      :     10.64597

Rotational constants in cm-1:     0.019616     0.011300     0.010537
Rotational constants in MHz :   588.057926   338.758397   315.905515

                             ****ORCA TERMINATED NORMALLY****
TOTAL RUN TIME: 0 days 21 hours 8 minutes 22 seconds 584 msec
