                         Program Version 4.1.2  - RELEASE  -
|  1> ! aug-cc-pVTZ aug-cc-pVTZ/C DLPNO-CCSD(T1) TightSCF NormalPNO UNO MiniPrint AutoAux
|  2> %pal nproc 10 end
|  3> %maxcore 20000
|  4> %mdci
|  5>      density none
|  6> end
|  7>
|  8> * xyz 0 6
|  9>  O     -0.33186900     -0.15748000     -0.50605800
| 10>  C     -1.18265900     -1.12580200     -0.33227100
| 11>  C     -2.66249500     -0.34078100      0.76035200
| 12>  C     -2.89055800      0.74829900     -0.06429600
| 13>  C     -3.87310700      0.69327500     -1.18746100
| 14> Fe      1.48962900      0.17406100     -0.07650600
| 15> Cl      1.82417800      2.16614800     -0.93309600
| 16>  C     -2.11564700      2.00013400      0.08151500
| 17> Cl      2.56899200     -1.49075100     -1.01926800
| 18> Cl      1.68419200      0.16470800      2.12271700
| 19>  H     -3.36889500     -1.16355200      0.65250700
| 20>  H     -2.55167900      2.83171700     -0.47649500
| 21>  H     -1.95506100      2.28620500      1.12404100
| 22>  H     -1.11420000      1.79272200     -0.33886600
| 23>  H     -4.68170100      1.40441700     -0.96599100
| 24>  H     -3.42037700      1.03239900     -2.12778400
| 25>  H     -4.31550900     -0.29471200     -1.32565300
| 26>  C     -2.08878100     -0.14272400      2.15209700
| 27>  H     -2.72302700      0.54817200      2.71967600
| 28>  H     -2.05918100     -1.08532400      2.70091300
| 29>  H     -1.07651700      0.26805800      2.13234500
| 30>  C     -0.76243500     -2.24503600      0.61082600
| 31>  H     -1.58972300     -2.91366900      0.86063300
| 32>  H     -0.00287700     -2.81917800      0.06446800
| 33>  H     -0.29354100     -1.86508400      1.51747300
| 34>  C     -1.82370100     -1.63024600     -1.61447600
| 35>  H     -1.07028300     -2.25643000     -2.10736500
| 36>  H     -2.71003700     -2.24338500     -1.43161700
| 37>  H     -2.06165600     -0.81260300     -2.29435900
| 38> *
| 39>
| 40>
| 41>                          ****END OF INPUT****

CARTESIAN COORDINATES (ANGSTROEM)
---------------------------------
  O     -0.331869   -0.157480   -0.506058
  C     -1.182659   -1.125802   -0.332271
  C     -2.662495   -0.340781    0.760352
  C     -2.890558    0.748299   -0.064296
  C     -3.873107    0.693275   -1.187461
  Fe     1.489629    0.174061   -0.076506
  Cl     1.824178    2.166148   -0.933096
  C     -2.115647    2.000134    0.081515
  Cl     2.568992   -1.490751   -1.019268
  Cl     1.684192    0.164708    2.122717
  H     -3.368895   -1.163552    0.652507
  H     -2.551679    2.831717   -0.476495
  H     -1.955061    2.286205    1.124041
  H     -1.114200    1.792722   -0.338866
  H     -4.681701    1.404417   -0.965991
  H     -3.420377    1.032399   -2.127784
  H     -4.315509   -0.294712   -1.325653
  C     -2.088781   -0.142724    2.152097
  H     -2.723027    0.548172    2.719676
  H     -2.059181   -1.085324    2.700913
  H     -1.076517    0.268058    2.132345
  C     -0.762435   -2.245036    0.610826
  H     -1.589723   -2.913669    0.860633
  H     -0.002877   -2.819178    0.064468
  H     -0.293541   -1.865084    1.517473
  C     -1.823701   -1.630246   -1.614476
  H     -1.070283   -2.256430   -2.107365
  H     -2.710037   -2.243385   -1.431617
  H     -2.061656   -0.812603   -2.294359

ORBITAL ENERGIES
----------------
                 SPIN UP ORBITALS
  NO   OCC          E(Eh)            E(eV)
   0   1.0000    -261.554252     -7117.2530
   1   1.0000    -104.778173     -2851.1590
   2   1.0000    -104.775373     -2851.0828
   3   1.0000    -104.775151     -2851.0768
   4   1.0000     -32.222127      -876.8086
   5   1.0000     -27.698256      -753.7079
   6   1.0000     -27.697670      -753.6919
   7   1.0000     -27.697501      -753.6873
   8   1.0000     -20.567670      -559.6748
   9   1.0000     -11.391917      -309.9898
  10   1.0000     -11.344181      -308.6909
  11   1.0000     -11.281027      -306.9724
  12   1.0000     -11.275453      -306.8207
  13   1.0000     -11.259268      -306.3803
  14   1.0000     -11.257832      -306.3412
  15   1.0000     -11.253153      -306.2139
  16   1.0000     -11.247931      -306.0718
  17   1.0000     -10.504805      -285.8503
  18   1.0000     -10.502003      -285.7740
  19   1.0000     -10.501740      -285.7669
  20   1.0000      -7.971667      -216.9201
  21   1.0000      -7.970854      -216.8980
  22   1.0000      -7.970821      -216.8971
  23   1.0000      -7.968856      -216.8436
  24   1.0000      -7.968559      -216.8355
  25   1.0000      -7.968103      -216.8231
  26   1.0000      -7.968025      -216.8210
  27   1.0000      -7.967857      -216.8164
  28   1.0000      -7.967768      -216.8140
  29   1.0000      -4.577424      -124.5581
  30   1.0000      -3.190233       -86.8107
  31   1.0000      -3.189276       -86.7846
  32   1.0000      -3.188893       -86.7742
  33   1.0000      -1.410438       -38.3800
  34   1.0000      -1.173151       -31.9231
  35   1.0000      -1.082724       -29.4624
  36   1.0000      -1.049812       -28.5668
  37   1.0000      -1.044847       -28.4317
  38   1.0000      -1.042271       -28.3616
  39   1.0000      -1.041532       -28.3415
  40   1.0000      -0.997402       -27.1407
  41   1.0000      -0.985596       -26.8194
  42   1.0000      -0.926336       -25.2069
  43   1.0000      -0.918667       -24.9982
  44   1.0000      -0.906768       -24.6744
  45   1.0000      -0.906729       -24.6733
  46   1.0000      -0.897292       -24.4166
  47   1.0000      -0.896865       -24.4049
  48   1.0000      -0.791381       -21.5346
  49   1.0000      -0.763886       -20.7864
  50   1.0000      -0.693730       -18.8773
  51   1.0000      -0.689305       -18.7569
  52   1.0000      -0.673966       -18.3395
  53   1.0000      -0.667150       -18.1541
  54   1.0000      -0.651996       -17.7417
  55   1.0000      -0.625948       -17.0329
  56   1.0000      -0.601956       -16.3800
  57   1.0000      -0.596892       -16.2422
  58   1.0000      -0.586639       -15.9633
  59   1.0000      -0.577521       -15.7151
  60   1.0000      -0.570914       -15.5354
  61   1.0000      -0.567824       -15.4513
  62   1.0000      -0.556766       -15.1504
  63   1.0000      -0.544441       -14.8150
  64   1.0000      -0.532508       -14.4903
  65   1.0000      -0.524335       -14.2679
  66   1.0000      -0.514908       -14.0114
  67   1.0000      -0.478522       -13.0212
  68   1.0000      -0.464066       -12.6279
  69   1.0000      -0.454748       -12.3743
  70   1.0000      -0.430618       -11.7177
  71   1.0000      -0.427424       -11.6308
  72   1.0000      -0.424555       -11.5527
  73   1.0000      -0.416327       -11.3288
  74   1.0000      -0.414595       -11.2817
  75   1.0000      -0.414062       -11.2672
  76   1.0000      -0.387960       -10.5569
  77   0.0000       0.007843         0.2134
  78   0.0000       0.019677         0.5354
  79   0.0000       0.020861         0.5677
  80   0.0000       0.023782         0.6471
  81   0.0000       0.031151         0.8477

                 SPIN DOWN ORBITALS
  NO   OCC          E(Eh)            E(eV)
   0   1.0000    -261.550695     -7117.1562
   1   1.0000    -104.776755     -2851.1205
   2   1.0000    -104.773909     -2851.0430
   3   1.0000    -104.773716     -2851.0378
   4   1.0000     -32.060061      -872.3986
   5   1.0000     -27.538053      -749.3485
   6   1.0000     -27.537953      -749.3458
   7   1.0000     -27.537614      -749.3366
   8   1.0000     -20.563057      -559.5492
   9   1.0000     -11.391902      -309.9894
  10   1.0000     -11.343818      -308.6810
  11   1.0000     -11.281077      -306.9737
  12   1.0000     -11.275473      -306.8212
  13   1.0000     -11.259161      -306.3774
  14   1.0000     -11.257890      -306.3428
  15   1.0000     -11.253144      -306.2136
  16   1.0000     -11.247941      -306.0720
  17   1.0000     -10.503284      -285.8089
  18   1.0000     -10.500436      -285.7314
  19   1.0000     -10.500209      -285.7252
  20   1.0000      -7.969175      -216.8523
  21   1.0000      -7.968572      -216.8359
  22   1.0000      -7.968500      -216.8339
  23   1.0000      -7.966359      -216.7756
  24   1.0000      -7.966176      -216.7707
  25   1.0000      -7.965686      -216.7573
  26   1.0000      -7.965597      -216.7549
  27   1.0000      -7.965452      -216.7510
  28   1.0000      -7.965353      -216.7483
  29   1.0000      -4.135125      -112.5225
  30   1.0000      -2.656855       -72.2967
  31   1.0000      -2.656815       -72.2956
  32   1.0000      -2.656079       -72.2756
  33   1.0000      -1.398671       -38.0598
  34   1.0000      -1.171991       -31.8915
  35   1.0000      -1.080093       -29.3908
  36   1.0000      -1.042163       -28.3587
  37   1.0000      -1.034703       -28.1557
  38   1.0000      -1.023077       -27.8393
  39   1.0000      -1.021304       -27.7911
  40   1.0000      -0.997323       -27.1385
  41   1.0000      -0.984880       -26.7999
  42   1.0000      -0.922734       -25.1089
  43   1.0000      -0.804980       -21.9046
  44   1.0000      -0.764590       -20.8056
  45   1.0000      -0.694815       -18.9069
  46   1.0000      -0.688866       -18.7450
  47   1.0000      -0.675464       -18.3803
  48   1.0000      -0.666247       -18.1295
  49   1.0000      -0.651648       -17.7322
  50   1.0000      -0.625384       -17.0176
  51   1.0000      -0.601625       -16.3711
  52   1.0000      -0.596442       -16.2300
  53   1.0000      -0.586441       -15.9579
  54   1.0000      -0.577284       -15.7087
  55   1.0000      -0.570884       -15.5345
  56   1.0000      -0.567184       -15.4338
  57   1.0000      -0.556592       -15.1456
  58   1.0000      -0.543835       -14.7985
  59   1.0000      -0.530239       -14.4285
  60   1.0000      -0.522642       -14.2218
  61   1.0000      -0.506326       -13.7778
  62   1.0000      -0.476342       -12.9619
  63   1.0000      -0.468252       -12.7418
  64   1.0000      -0.464828       -12.6486
  65   1.0000      -0.439282       -11.9535
  66   1.0000      -0.436148       -11.8682
  67   1.0000      -0.434205       -11.8153
  68   1.0000      -0.422750       -11.5036
  69   1.0000      -0.414083       -11.2678
  70   1.0000      -0.400067       -10.8864
  71   1.0000      -0.384780       -10.4704
  72   0.0000       0.007849         0.2136
  73   0.0000       0.019649         0.5347
  74   0.0000       0.020897         0.5686
  75   0.0000       0.023550         0.6408
  76   0.0000       0.030951         0.8422

E(0)                                       ...  -3028.429720299
E(0)                                       ...  -3028.429720299
E(CORR)(strong-pairs)                      ...     -2.875416801
E(CORR)(weak-pairs)                        ...     -0.035839357
E(CORR)(corrected)                         ...     -2.911256157
E(TOT)                                     ...  -3031.340976457
E(CCSD(T))                                 ...  -3031.461531963
FINAL SINGLE POINT ENERGY     -3031.461531962510

DIPOLE MOMENT
-------------
                                X             Y             Z
Electronic contribution:     42.73337       6.25442      -0.90468
Nuclear contribution   :    -47.59205      -6.89944       0.71777
                        -----------------------------------------
Total Dipole Moment    :     -4.85868      -0.64502      -0.18691
                        -----------------------------------------
Magnitude (a.u.)       :      4.90487
Magnitude (Debye)      :     12.46719

Rotational constants in cm-1:     0.019519     0.010523     0.010027
Rotational constants in MHz :   585.179460   315.484620   300.594872

                             ****ORCA TERMINATED NORMALLY****
TOTAL RUN TIME: 0 days 20 hours 45 minutes 51 seconds 380 msec
