                         Program Version 4.1.2  - RELEASE  -
|  1> ! aug-cc-pVTZ aug-cc-pVTZ/C DLPNO-CCSD(T1) TightSCF NormalPNO UNO MiniPrint AutoAux
|  2> %pal nproc 10 end
|  3> %maxcore 20000
|  4> %mdci
|  5>      density none
|  6> end
|  7>
|  8> * xyz 0 6
|  9>  O     -0.35093200     -0.20930400     -0.56638500
| 10>  C     -1.36295400     -1.16111800     -0.43498100
| 11>  C     -2.85689300     -0.11398200     -0.12814300
| 12>  C     -2.08300700      1.10981500     -0.25039300
| 13>  C     -1.94942000      1.78945200     -1.55860100
| 14> Fe      1.38793200      0.04342000      0.03444400
| 15> Cl      1.80687400      2.06425800     -0.78829300
| 16>  C     -1.57452800      1.82330900      0.94154500
| 17> Cl      2.59894600     -1.62891100     -0.71718100
| 18> Cl      1.29519600      0.09721800      2.25716900
| 19>  H     -3.48597900     -0.28322400     -1.00308100
| 20>  H     -2.41996300      2.41550300      1.33097300
| 21>  H     -1.25900900      1.14621900      1.73702700
| 22>  H     -0.75678600      2.50166700      0.69195200
| 23>  H     -2.63539200      2.65282300     -1.53488000
| 24>  H     -0.93451700      2.17727200     -1.68862800
| 25>  H     -2.23179400      1.15156000     -2.39696400
| 26>  C     -3.57962800     -0.41102600      1.17385900
| 27>  H     -4.41404000      0.28479600      1.32410700
| 28>  H     -3.99723200     -1.42112900      1.14544500
| 29>  H     -2.92571400     -0.34548900      2.04596200
| 30>  C     -1.15856100     -2.09332100      0.73678200
| 31>  H     -1.99063800     -2.79264400      0.85514500
| 32>  H     -0.24887100     -2.67271300      0.53051900
| 33>  H     -0.98973700     -1.55042500      1.66798800
| 34>  C     -1.60141700     -1.87597800     -1.74883100
| 35>  H     -0.69044200     -2.43782300     -1.98943600
| 36>  H     -2.44347200     -2.57245500     -1.68592200
| 37>  H     -1.77402000     -1.16495800     -2.56093500
| 38> *
| 39>
| 40>
| 41>                          ****END OF INPUT****

CARTESIAN COORDINATES (ANGSTROEM)
---------------------------------
  O     -0.350932   -0.209304   -0.566385
  C     -1.362954   -1.161118   -0.434981
  C     -2.856893   -0.113982   -0.128143
  C     -2.083007    1.109815   -0.250393
  C     -1.949420    1.789452   -1.558601
  Fe     1.387932    0.043420    0.034444
  Cl     1.806874    2.064258   -0.788293
  C     -1.574528    1.823309    0.941545
  Cl     2.598946   -1.628911   -0.717181
  Cl     1.295196    0.097218    2.257169
  H     -3.485979   -0.283224   -1.003081
  H     -2.419963    2.415503    1.330973
  H     -1.259009    1.146219    1.737027
  H     -0.756786    2.501667    0.691952
  H     -2.635392    2.652823   -1.534880
  H     -0.934517    2.177272   -1.688628
  H     -2.231794    1.151560   -2.396964
  C     -3.579628   -0.411026    1.173859
  H     -4.414040    0.284796    1.324107
  H     -3.997232   -1.421129    1.145445
  H     -2.925714   -0.345489    2.045962
  C     -1.158561   -2.093321    0.736782
  H     -1.990638   -2.792644    0.855145
  H     -0.248871   -2.672713    0.530519
  H     -0.989737   -1.550425    1.667988
  C     -1.601417   -1.875978   -1.748831
  H     -0.690442   -2.437823   -1.989436
  H     -2.443472   -2.572455   -1.685922
  H     -1.774020   -1.164958   -2.560935

ORBITAL ENERGIES
----------------
                 SPIN UP ORBITALS
  NO   OCC          E(Eh)            E(eV)
   0   1.0000    -261.546885     -7117.0526
   1   1.0000    -104.775000     -2851.0727
   2   1.0000    -104.774017     -2851.0459
   3   1.0000    -104.771448     -2850.9760
   4   1.0000     -32.214777      -876.6087
   5   1.0000     -27.690630      -753.5003
   6   1.0000     -27.690567      -753.4986
   7   1.0000     -27.690232      -753.4895
   8   1.0000     -20.547677      -559.1307
   9   1.0000     -11.399005      -310.1827
  10   1.0000     -11.361362      -309.1584
  11   1.0000     -11.287312      -307.1434
  12   1.0000     -11.279869      -306.9408
  13   1.0000     -11.275537      -306.8230
  14   1.0000     -11.263195      -306.4871
  15   1.0000     -11.244471      -305.9776
  16   1.0000     -11.239668      -305.8469
  17   1.0000     -10.501502      -285.7604
  18   1.0000     -10.500619      -285.7364
  19   1.0000     -10.497993      -285.6649
  20   1.0000      -7.968336      -216.8294
  21   1.0000      -7.967579      -216.8088
  22   1.0000      -7.967516      -216.8071
  23   1.0000      -7.967492      -216.8065
  24   1.0000      -7.966652      -216.7836
  25   1.0000      -7.966609      -216.7824
  26   1.0000      -7.964795      -216.7331
  27   1.0000      -7.964110      -216.7144
  28   1.0000      -7.964024      -216.7121
  29   1.0000      -4.570261      -124.3631
  30   1.0000      -3.182754       -86.6071
  31   1.0000      -3.182476       -86.5996
  32   1.0000      -3.181862       -86.5829
  33   1.0000      -1.366576       -37.1864
  34   1.0000      -1.179957       -32.1083
  35   1.0000      -1.085860       -29.5477
  36   1.0000      -1.045951       -28.4618
  37   1.0000      -1.040959       -28.3259
  38   1.0000      -1.040420       -28.3113
  39   1.0000      -1.038267       -28.2527
  40   1.0000      -1.013283       -27.5728
  41   1.0000      -0.972459       -26.4620
  42   1.0000      -0.932773       -25.3820
  43   1.0000      -0.907536       -24.6953
  44   1.0000      -0.899851       -24.4862
  45   1.0000      -0.899747       -24.4833
  46   1.0000      -0.891628       -24.2624
  47   1.0000      -0.891274       -24.2528
  48   1.0000      -0.788136       -21.4463
  49   1.0000      -0.762572       -20.7506
  50   1.0000      -0.700702       -19.0671
  51   1.0000      -0.690234       -18.7822
  52   1.0000      -0.672562       -18.3013
  53   1.0000      -0.642705       -17.4889
  54   1.0000      -0.633492       -17.2382
  55   1.0000      -0.629202       -17.1215
  56   1.0000      -0.600110       -16.3298
  57   1.0000      -0.597327       -16.2541
  58   1.0000      -0.593692       -16.1552
  59   1.0000      -0.581899       -15.8343
  60   1.0000      -0.576886       -15.6979
  61   1.0000      -0.559562       -15.2265
  62   1.0000      -0.554042       -15.0762
  63   1.0000      -0.541282       -14.7290
  64   1.0000      -0.534680       -14.5494
  65   1.0000      -0.527719       -14.3600
  66   1.0000      -0.506482       -13.7821
  67   1.0000      -0.475144       -12.9293
  68   1.0000      -0.461554       -12.5595
  69   1.0000      -0.448960       -12.2168
  70   1.0000      -0.428318       -11.6551
  71   1.0000      -0.425352       -11.5744
  72   1.0000      -0.421522       -11.4702
  73   1.0000      -0.414987       -11.2924
  74   1.0000      -0.412918       -11.2361
  75   1.0000      -0.411022       -11.1845
  76   1.0000      -0.399294       -10.8653
  77   0.0000       0.006968         0.1896
  78   0.0000       0.018777         0.5109
  79   0.0000       0.021481         0.5845
  80   0.0000       0.029163         0.7936
  81   0.0000       0.030452         0.8286

                 SPIN DOWN ORBITALS
  NO   OCC          E(Eh)            E(eV)
   0   1.0000    -261.543341     -7116.9561
   1   1.0000    -104.773709     -2851.0376
   2   1.0000    -104.772667     -2851.0092
   3   1.0000    -104.770018     -2850.9371
   4   1.0000     -32.052759      -872.1999
   5   1.0000     -27.530863      -749.1529
   6   1.0000     -27.530659      -749.1473
   7   1.0000     -27.530150      -749.1335
   8   1.0000     -20.541751      -558.9695
   9   1.0000     -11.399034      -310.1835
  10   1.0000     -11.361232      -309.1548
  11   1.0000     -11.287059      -307.1365
  12   1.0000     -11.279851      -306.9403
  13   1.0000     -11.275551      -306.8233
  14   1.0000     -11.263212      -306.4876
  15   1.0000     -11.244393      -305.9755
  16   1.0000     -11.239636      -305.8460
  17   1.0000     -10.500115      -285.7227
  18   1.0000     -10.499165      -285.6968
  19   1.0000     -10.496462      -285.6233
  20   1.0000      -7.966062      -216.7676
  21   1.0000      -7.965493      -216.7521
  22   1.0000      -7.965405      -216.7497
  23   1.0000      -7.965034      -216.7396
  24   1.0000      -7.964538      -216.7261
  25   1.0000      -7.964468      -216.7242
  26   1.0000      -7.962442      -216.6691
  27   1.0000      -7.961690      -216.6486
  28   1.0000      -7.961625      -216.6468
  29   1.0000      -4.128101      -112.3313
  30   1.0000      -2.649940       -72.1085
  31   1.0000      -2.649884       -72.1070
  32   1.0000      -2.649159       -72.0873
  33   1.0000      -1.351052       -36.7640
  34   1.0000      -1.178694       -32.0739
  35   1.0000      -1.083161       -29.4743
  36   1.0000      -1.039613       -28.2893
  37   1.0000      -1.031722       -28.0746
  38   1.0000      -1.021339       -27.7921
  39   1.0000      -1.018336       -27.7103
  40   1.0000      -1.012602       -27.5543
  41   1.0000      -0.971785       -26.4436
  42   1.0000      -0.929865       -25.3029
  43   1.0000      -0.793780       -21.5998
  44   1.0000      -0.767729       -20.8910
  45   1.0000      -0.700867       -19.0716
  46   1.0000      -0.689424       -18.7602
  47   1.0000      -0.673791       -18.3348
  48   1.0000      -0.644800       -17.5459
  49   1.0000      -0.631498       -17.1839
  50   1.0000      -0.629010       -17.1162
  51   1.0000      -0.599267       -16.3069
  52   1.0000      -0.597443       -16.2572
  53   1.0000      -0.593504       -16.1501
  54   1.0000      -0.580430       -15.7943
  55   1.0000      -0.576636       -15.6911
  56   1.0000      -0.559536       -15.2257
  57   1.0000      -0.552649       -15.0383
  58   1.0000      -0.540684       -14.7128
  59   1.0000      -0.533376       -14.5139
  60   1.0000      -0.521880       -14.2011
  61   1.0000      -0.501292       -13.6408
  62   1.0000      -0.471829       -12.8391
  63   1.0000      -0.464805       -12.6480
  64   1.0000      -0.458770       -12.4838
  65   1.0000      -0.436127       -11.8676
  66   1.0000      -0.432507       -11.7691
  67   1.0000      -0.431633       -11.7453
  68   1.0000      -0.424811       -11.5597
  69   1.0000      -0.410824       -11.1791
  70   1.0000      -0.399064       -10.8591
  71   1.0000      -0.393795       -10.7157
  72   0.0000       0.006951         0.1892
  73   0.0000       0.018614         0.5065
  74   0.0000       0.021463         0.5840
  75   0.0000       0.028594         0.7781
  76   0.0000       0.030480         0.8294

E(0)                                       ...  -3028.425061943
E(0)                                       ...  -3028.425061943
E(CORR)(strong-pairs)                      ...     -2.870083237
E(CORR)(weak-pairs)                        ...     -0.035799202
E(CORR)(corrected)                         ...     -2.905882439
E(TOT)                                     ...  -3031.330944381
E(CCSD(T))                                 ...  -3031.449383918
FINAL SINGLE POINT ENERGY     -3031.449383917617

DIPOLE MOMENT
-------------
                                X             Y             Z
Electronic contribution:     40.19427       4.07851       2.18907
Nuclear contribution   :    -44.96752      -3.70223      -2.64668
                        -----------------------------------------
Total Dipole Moment    :     -4.77325       0.37628      -0.45761
                        -----------------------------------------
Magnitude (a.u.)       :      4.80988
Magnitude (Debye)      :     12.22573

Rotational constants in cm-1:     0.019068     0.011799     0.010730
Rotational constants in MHz :   571.631438   353.714225   321.667149

                             ****ORCA TERMINATED NORMALLY****
TOTAL RUN TIME: 0 days 20 hours 52 minutes 30 seconds 207 msec
