                         Program Version 4.1.2  - RELEASE  -
|  1> ! aug-cc-pVTZ aug-cc-pVTZ/C DLPNO-CCSD(T1) TightSCF NormalPNO UNO MiniPrint AutoAux
|  2> %pal nproc 10 end
|  3> %maxcore 20000
|  4> %mdci
|  5>      density none
|  6> end
|  7>
|  8> * xyz 0 6
|  9>  O     -0.31348000     -0.19099900     -0.50360500
| 10>  C     -1.14961400     -1.14873800     -0.29331400
| 11>  C     -2.68522200     -0.27287000      0.84016200
| 12>  C     -2.98118100      0.71438300     -0.07211300
| 13>  C     -4.01972500      0.52872500     -1.13184600
| 14> Fe      1.51758400      0.17816100     -0.08819700
| 15> Cl      1.83925200      2.13907300     -1.00666800
| 16>  C     -2.22893200      1.99621800     -0.08655000
| 17> Cl      2.56877000     -1.51897600     -1.00188400
| 18> Cl      1.75090600      0.21824100      2.10210600
| 19>  H     -3.34438900     -1.14027700      0.83645000
| 20>  H     -2.69939500      2.74913300     -0.72314500
| 21>  H     -2.07246300      2.40524500      0.91565300
| 22>  H     -1.22500400      1.78086600     -0.49284900
| 23>  H     -4.83816000      1.23680600     -0.93977500
| 24>  H     -3.62759900      0.78017300     -2.12532700
| 25>  H     -4.43925400     -0.47921400     -1.14869400
| 26>  C     -2.01280600      0.05289100      2.15849600
| 27>  H     -2.60625500      0.79506700      2.70566200
| 28>  H     -1.93418000     -0.83260100      2.79135400
| 29>  H     -1.00832200      0.46249200      2.02736600
| 30>  C     -0.75839000     -2.20979300      0.71900600
| 31>  H     -1.59701900     -2.84871300      1.00397400
| 32>  H     -0.00589800     -2.82978700      0.21270800
| 33>  H     -0.28515700     -1.78178000      1.60161300
| 34>  C     -1.83849900     -1.68529100     -1.53100300
| 35>  H     -1.11328900     -2.34899000     -2.01897500
| 36>  H     -2.73143900     -2.26987600     -1.29762900
| 37>  H     -2.07709200     -0.88761300     -2.23385600
| 38> *
| 39>
| 40>
| 41>                          ****END OF INPUT****

CARTESIAN COORDINATES (ANGSTROEM)
---------------------------------
  O     -0.313480   -0.190999   -0.503605
  C     -1.149614   -1.148738   -0.293314
  C     -2.685222   -0.272870    0.840162
  C     -2.981181    0.714383   -0.072113
  C     -4.019725    0.528725   -1.131846
  Fe     1.517584    0.178161   -0.088197
  Cl     1.839252    2.139073   -1.006668
  C     -2.228932    1.996218   -0.086550
  Cl     2.568770   -1.518976   -1.001884
  Cl     1.750906    0.218241    2.102106
  H     -3.344389   -1.140277    0.836450
  H     -2.699395    2.749133   -0.723145
  H     -2.072463    2.405245    0.915653
  H     -1.225004    1.780866   -0.492849
  H     -4.838160    1.236806   -0.939775
  H     -3.627599    0.780173   -2.125327
  H     -4.439254   -0.479214   -1.148694
  C     -2.012806    0.052891    2.158496
  H     -2.606255    0.795067    2.705662
  H     -1.934180   -0.832601    2.791354
  H     -1.008322    0.462492    2.027366
  C     -0.758390   -2.209793    0.719006
  H     -1.597019   -2.848713    1.003974
  H     -0.005898   -2.829787    0.212708
  H     -0.285157   -1.781780    1.601613
  C     -1.838499   -1.685291   -1.531003
  H     -1.113289   -2.348990   -2.018975
  H     -2.731439   -2.269876   -1.297629
  H     -2.077092   -0.887613   -2.233856

ORBITAL ENERGIES
----------------
                 SPIN UP ORBITALS
  NO   OCC          E(Eh)            E(eV)
   0   1.0000    -261.559068     -7117.3841
   1   1.0000    -104.781185     -2851.2410
   2   1.0000    -104.778513     -2851.1683
   3   1.0000    -104.777705     -2851.1463
   4   1.0000     -32.226902      -876.9386
   5   1.0000     -27.703142      -753.8408
   6   1.0000     -27.702378      -753.8200
   7   1.0000     -27.702225      -753.8159
   8   1.0000     -20.580908      -560.0350
   9   1.0000     -11.402359      -310.2740
  10   1.0000     -11.325755      -308.1895
  11   1.0000     -11.273661      -306.7719
  12   1.0000     -11.268758      -306.6385
  13   1.0000     -11.264433      -306.5208
  14   1.0000     -11.259284      -306.3807
  15   1.0000     -11.252742      -306.2027
  16   1.0000     -11.245083      -305.9943
  17   1.0000     -10.507834      -285.9327
  18   1.0000     -10.505149      -285.8596
  19   1.0000     -10.504305      -285.8367
  20   1.0000      -7.974686      -217.0022
  21   1.0000      -7.973885      -216.9805
  22   1.0000      -7.973865      -216.9799
  23   1.0000      -7.972013      -216.9295
  24   1.0000      -7.971249      -216.9087
  25   1.0000      -7.971168      -216.9065
  26   1.0000      -7.971118      -216.9051
  27   1.0000      -7.970431      -216.8865
  28   1.0000      -7.970343      -216.8841
  29   1.0000      -4.582121      -124.6858
  30   1.0000      -3.195089       -86.9428
  31   1.0000      -3.193816       -86.9082
  32   1.0000      -3.193526       -86.9003
  33   1.0000      -1.423742       -38.7420
  34   1.0000      -1.163097       -31.6495
  35   1.0000      -1.085682       -29.5429
  36   1.0000      -1.053175       -28.6583
  37   1.0000      -1.047888       -28.5145
  38   1.0000      -1.045401       -28.4468
  39   1.0000      -1.037662       -28.2362
  40   1.0000      -0.992790       -27.0152
  41   1.0000      -0.988909       -26.9096
  42   1.0000      -0.928400       -25.2631
  43   1.0000      -0.916070       -24.9275
  44   1.0000      -0.911372       -24.7997
  45   1.0000      -0.911306       -24.7979
  46   1.0000      -0.901421       -24.5289
  47   1.0000      -0.901037       -24.5185
  48   1.0000      -0.796167       -21.6648
  49   1.0000      -0.757567       -20.6145
  50   1.0000      -0.691907       -18.8277
  51   1.0000      -0.684520       -18.6267
  52   1.0000      -0.680154       -18.5079
  53   1.0000      -0.674002       -18.3405
  54   1.0000      -0.646599       -17.5949
  55   1.0000      -0.624189       -16.9850
  56   1.0000      -0.603506       -16.4222
  57   1.0000      -0.596673       -16.2363
  58   1.0000      -0.582029       -15.8378
  59   1.0000      -0.578499       -15.7418
  60   1.0000      -0.570461       -15.5230
  61   1.0000      -0.564620       -15.3641
  62   1.0000      -0.558308       -15.1923
  63   1.0000      -0.542738       -14.7687
  64   1.0000      -0.536049       -14.5866
  65   1.0000      -0.520152       -14.1541
  66   1.0000      -0.519035       -14.1237
  67   1.0000      -0.484223       -13.1764
  68   1.0000      -0.466779       -12.7017
  69   1.0000      -0.459391       -12.5007
  70   1.0000      -0.434135       -11.8134
  71   1.0000      -0.429768       -11.6946
  72   1.0000      -0.427289       -11.6271
  73   1.0000      -0.419041       -11.4027
  74   1.0000      -0.417366       -11.3571
  75   1.0000      -0.416676       -11.3383
  76   1.0000      -0.380727       -10.3601
  77   0.0000       0.009215         0.2507
  78   0.0000       0.020521         0.5584
  79   0.0000       0.021659         0.5894
  80   0.0000       0.027051         0.7361
  81   0.0000       0.034188         0.9303

                 SPIN DOWN ORBITALS
  NO   OCC          E(Eh)            E(eV)
   0   1.0000    -261.555506     -7117.2871
   1   1.0000    -104.779738     -2851.2016
   2   1.0000    -104.777030     -2851.1279
   3   1.0000    -104.776236     -2851.1063
   4   1.0000     -32.064842      -872.5287
   5   1.0000     -27.542804      -749.4778
   6   1.0000     -27.542731      -749.4758
   7   1.0000     -27.542448      -749.4681
   8   1.0000     -20.576745      -559.9217
   9   1.0000     -11.402292      -310.2721
  10   1.0000     -11.325132      -308.1725
  11   1.0000     -11.273744      -306.7742
  12   1.0000     -11.269039      -306.6462
  13   1.0000     -11.264330      -306.5180
  14   1.0000     -11.259288      -306.3808
  15   1.0000     -11.252824      -306.2049
  16   1.0000     -11.245066      -305.9938
  17   1.0000     -10.506284      -285.8905
  18   1.0000     -10.503562      -285.8165
  19   1.0000     -10.502737      -285.7940
  20   1.0000      -7.972181      -216.9341
  21   1.0000      -7.971535      -216.9165
  22   1.0000      -7.971471      -216.9148
  23   1.0000      -7.969469      -216.8603
  24   1.0000      -7.968808      -216.8423
  25   1.0000      -7.968713      -216.8397
  26   1.0000      -7.968710      -216.8396
  27   1.0000      -7.967946      -216.8188
  28   1.0000      -7.967848      -216.8162
  29   1.0000      -4.139828      -112.6504
  30   1.0000      -2.661496       -72.4230
  31   1.0000      -2.661447       -72.4217
  32   1.0000      -2.660856       -72.4056
  33   1.0000      -1.413114       -38.4528
  34   1.0000      -1.161797       -31.6141
  35   1.0000      -1.083106       -29.4728
  36   1.0000      -1.039577       -28.2883
  37   1.0000      -1.036537       -28.2056
  38   1.0000      -1.025922       -27.9168
  39   1.0000      -1.024018       -27.8649
  40   1.0000      -0.992405       -27.0047
  41   1.0000      -0.988599       -26.9011
  42   1.0000      -0.916823       -24.9480
  43   1.0000      -0.810758       -22.0619
  44   1.0000      -0.757733       -20.6190
  45   1.0000      -0.694319       -18.8934
  46   1.0000      -0.684488       -18.6259
  47   1.0000      -0.679936       -18.5020
  48   1.0000      -0.673219       -18.3192
  49   1.0000      -0.646480       -17.5916
  50   1.0000      -0.623410       -16.9639
  51   1.0000      -0.603125       -16.4119
  52   1.0000      -0.596338       -16.2272
  53   1.0000      -0.581892       -15.8341
  54   1.0000      -0.578460       -15.7407
  55   1.0000      -0.569648       -15.5009
  56   1.0000      -0.564641       -15.3647
  57   1.0000      -0.558210       -15.1897
  58   1.0000      -0.542136       -14.7523
  59   1.0000      -0.533402       -14.5146
  60   1.0000      -0.519962       -14.1489
  61   1.0000      -0.509702       -13.8697
  62   1.0000      -0.482488       -13.1292
  63   1.0000      -0.471424       -12.8281
  64   1.0000      -0.469665       -12.7802
  65   1.0000      -0.442319       -12.0361
  66   1.0000      -0.439004       -11.9459
  67   1.0000      -0.436961       -11.8903
  68   1.0000      -0.423382       -11.5208
  69   1.0000      -0.417106       -11.3500
  70   1.0000      -0.402430       -10.9507
  71   1.0000      -0.378822       -10.3083
  72   0.0000       0.009216         0.2508
  73   0.0000       0.020511         0.5581
  74   0.0000       0.021690         0.5902
  75   0.0000       0.026894         0.7318
  76   0.0000       0.033574         0.9136

E(0)                                       ...  -3028.435107359
E(0)                                       ...  -3028.435107359
E(CORR)(strong-pairs)                      ...     -2.874413385
E(CORR)(weak-pairs)                        ...     -0.035677475
E(CORR)(corrected)                         ...     -2.910090860
E(TOT)                                     ...  -3031.345198219
E(CCSD(T))                                 ...  -3031.465607625
FINAL SINGLE POINT ENERGY     -3031.465607625044

DIPOLE MOMENT
-------------
                                X             Y             Z
Electronic contribution:     43.78876       5.96891      -1.40331
Nuclear contribution   :    -48.39564      -6.83442       1.26240
                        -----------------------------------------
Total Dipole Moment    :     -4.60688      -0.86550      -0.14091
                        -----------------------------------------
Magnitude (a.u.)       :      4.68959
Magnitude (Debye)      :     11.91999

Rotational constants in cm-1:     0.019635     0.010261     0.009802
Rotational constants in MHz :   588.650497   307.610679   293.871217

                             ****ORCA TERMINATED NORMALLY****
TOTAL RUN TIME: 0 days 18 hours 57 minutes 1 seconds 332 msec
