                         Program Version 4.1.2  - RELEASE  -
|  1> ! aug-cc-pVTZ aug-cc-pVTZ/C DLPNO-CCSD(T1) TightSCF NormalPNO UNO MiniPrint AutoAux
|  2> %pal nproc 10 end
|  3> %maxcore 20000
|  4> %mdci
|  5>      density none
|  6> end
|  7>
|  8> * xyz 0 6
|  9>  O     -0.23699900     -0.29690100     -0.83029600
| 10>  C     -1.08423100     -1.22183300     -0.65032800
| 11>  C     -2.90681400     -0.22836900      0.55434100
| 12>  C     -2.64678000      0.92978400     -0.10356300
| 13>  C     -3.23812800      1.22488900     -1.45113700
| 14> Fe      1.46798500      0.15151700     -0.00786500
| 15> Cl      2.03551700      2.03600200     -0.94648400
| 16>  C     -1.73558000      1.99273600      0.42363800
| 17> Cl      2.69556300     -1.58640700     -0.52459100
| 18> Cl      1.14202600      0.32116900      2.16274700
| 19>  H     -3.63619200     -0.89883400      0.10182300
| 20>  H     -2.27039600      2.94954100      0.48213900
| 21>  H     -1.31674800      1.76827000      1.40372100
| 22>  H     -0.90425600      2.14850900     -0.27734000
| 23>  H     -3.80812300      2.16170800     -1.40379500
| 24>  H     -2.44720700      1.38410700     -2.19640800
| 25>  H     -3.91106100      0.43777800     -1.80004600
| 26>  C     -2.63500600     -0.46589900      2.02063500
| 27>  H     -3.39083200      0.05643900      2.62163100
| 28>  H     -2.70695900     -1.52630700      2.27442100
| 29>  H     -1.65481500     -0.10684400      2.34167600
| 30>  C     -0.84148000     -2.25405700      0.41434300
| 31>  H     -1.71994300     -2.87155400      0.60513100
| 32>  H     -0.04343200     -2.89720700      0.01492500
| 33>  H     -0.46936100     -1.81491300      1.33937700
| 34>  C     -1.87060500     -1.65825600     -1.85799500
| 35>  H     -1.22046200     -2.36663400     -2.39098300
| 36>  H     -2.79270000     -2.17954000     -1.59751400
| 37>  H     -2.07018900     -0.82570100     -2.52991600
| 38> *
| 39>
| 40>
| 41>                          ****END OF INPUT****

CARTESIAN COORDINATES (ANGSTROEM)
---------------------------------
  O     -0.236999   -0.296901   -0.830296
  C     -1.084231   -1.221833   -0.650328
  C     -2.906814   -0.228369    0.554341
  C     -2.646780    0.929784   -0.103563
  C     -3.238128    1.224889   -1.451137
  Fe     1.467985    0.151517   -0.007865
  Cl     2.035517    2.036002   -0.946484
  C     -1.735580    1.992736    0.423638
  Cl     2.695563   -1.586407   -0.524591
  Cl     1.142026    0.321169    2.162747
  H     -3.636192   -0.898834    0.101823
  H     -2.270396    2.949541    0.482139
  H     -1.316748    1.768270    1.403721
  H     -0.904256    2.148509   -0.277340
  H     -3.808123    2.161708   -1.403795
  H     -2.447207    1.384107   -2.196408
  H     -3.911061    0.437778   -1.800046
  C     -2.635006   -0.465899    2.020635
  H     -3.390832    0.056439    2.621631
  H     -2.706959   -1.526307    2.274421
  H     -1.654815   -0.106844    2.341676
  C     -0.841480   -2.254057    0.414343
  H     -1.719943   -2.871554    0.605131
  H     -0.043432   -2.897207    0.014925
  H     -0.469361   -1.814913    1.339377
  C     -1.870605   -1.658256   -1.857995
  H     -1.220462   -2.366634   -2.390983
  H     -2.792700   -2.179540   -1.597514
  H     -2.070189   -0.825701   -2.529916

ORBITAL ENERGIES
----------------
                 SPIN UP ORBITALS
  NO   OCC          E(Eh)            E(eV)
   0   1.0000    -261.570326     -7117.6904
   1   1.0000    -104.790539     -2851.4955
   2   1.0000    -104.786809     -2851.3940
   3   1.0000    -104.784961     -2851.3437
   4   1.0000     -32.238100      -877.2433
   5   1.0000     -27.714466      -754.1490
   6   1.0000     -27.713511      -754.1230
   7   1.0000     -27.713318      -754.1177
   8   1.0000     -20.606236      -560.7242
   9   1.0000     -11.418327      -310.7085
  10   1.0000     -11.285383      -307.0909
  11   1.0000     -11.273863      -306.7774
  12   1.0000     -11.268658      -306.6358
  13   1.0000     -11.252217      -306.1884
  14   1.0000     -11.251799      -306.1770
  15   1.0000     -11.239517      -305.8428
  16   1.0000     -11.236165      -305.7516
  17   1.0000     -10.517240      -286.1886
  18   1.0000     -10.513486      -286.0865
  19   1.0000     -10.511588      -286.0349
  20   1.0000      -7.984087      -217.2580
  21   1.0000      -7.983302      -217.2367
  22   1.0000      -7.983264      -217.2356
  23   1.0000      -7.980352      -217.1564
  24   1.0000      -7.979585      -217.1355
  25   1.0000      -7.979529      -217.1340
  26   1.0000      -7.978388      -217.1030
  27   1.0000      -7.977713      -217.0846
  28   1.0000      -7.977655      -217.0830
  29   1.0000      -4.593110      -124.9849
  30   1.0000      -3.206167       -87.2442
  31   1.0000      -3.204628       -87.2024
  32   1.0000      -3.204438       -87.1972
  33   1.0000      -1.450375       -39.4667
  34   1.0000      -1.138215       -30.9724
  35   1.0000      -1.096017       -29.8241
  36   1.0000      -1.062986       -28.9253
  37   1.0000      -1.057111       -28.7654
  38   1.0000      -1.054056       -28.6823
  39   1.0000      -1.026027       -27.9196
  40   1.0000      -1.005854       -27.3707
  41   1.0000      -0.967280       -26.3210
  42   1.0000      -0.938195       -25.5296
  43   1.0000      -0.922139       -25.0927
  44   1.0000      -0.922039       -25.0899
  45   1.0000      -0.911842       -24.8125
  46   1.0000      -0.911075       -24.7916
  47   1.0000      -0.903771       -24.5929
  48   1.0000      -0.807568       -21.9750
  49   1.0000      -0.739180       -20.1141
  50   1.0000      -0.704262       -19.1639
  51   1.0000      -0.694702       -18.9038
  52   1.0000      -0.683622       -18.6023
  53   1.0000      -0.662679       -18.0324
  54   1.0000      -0.628898       -17.1132
  55   1.0000      -0.621659       -16.9162
  56   1.0000      -0.605373       -16.4730
  57   1.0000      -0.597706       -16.2644
  58   1.0000      -0.584125       -15.8949
  59   1.0000      -0.576062       -15.6754
  60   1.0000      -0.561464       -15.2782
  61   1.0000      -0.557275       -15.1642
  62   1.0000      -0.547744       -14.9049
  63   1.0000      -0.546242       -14.8640
  64   1.0000      -0.534849       -14.5540
  65   1.0000      -0.529734       -14.4148
  66   1.0000      -0.502251       -13.6670
  67   1.0000      -0.496890       -13.5211
  68   1.0000      -0.473768       -12.8919
  69   1.0000      -0.471633       -12.8338
  70   1.0000      -0.442779       -12.0486
  71   1.0000      -0.437349       -11.9009
  72   1.0000      -0.435444       -11.8490
  73   1.0000      -0.426842       -11.6149
  74   1.0000      -0.425679       -11.5833
  75   1.0000      -0.424428       -11.5493
  76   1.0000      -0.366001        -9.9594
  77   0.0000       0.012172         0.3312
  78   0.0000       0.022664         0.6167
  79   0.0000       0.023633         0.6431
  80   0.0000       0.030155         0.8205
  81   0.0000       0.038766         1.0549

                 SPIN DOWN ORBITALS
  NO   OCC          E(Eh)            E(eV)
   0   1.0000    -261.566755     -7117.5933
   1   1.0000    -104.789082     -2851.4559
   2   1.0000    -104.785274     -2851.3523
   3   1.0000    -104.783432     -2851.3021
   4   1.0000     -32.076078      -872.8345
   5   1.0000     -27.553990      -749.7822
   6   1.0000     -27.553943      -749.7809
   7   1.0000     -27.553780      -749.7765
   8   1.0000     -20.602426      -560.6205
   9   1.0000     -11.418237      -310.7060
  10   1.0000     -11.285321      -307.0892
  11   1.0000     -11.273751      -306.7744
  12   1.0000     -11.268645      -306.6354
  13   1.0000     -11.252213      -306.1883
  14   1.0000     -11.251807      -306.1772
  15   1.0000     -11.239515      -305.8428
  16   1.0000     -11.236189      -305.7522
  17   1.0000     -10.515680      -286.1462
  18   1.0000     -10.511846      -286.0419
  19   1.0000     -10.509962      -285.9906
  20   1.0000      -7.981584      -217.1899
  21   1.0000      -7.980904      -217.1714
  22   1.0000      -7.980859      -217.1702
  23   1.0000      -7.977743      -217.0854
  24   1.0000      -7.977046      -217.0665
  25   1.0000      -7.976958      -217.0641
  26   1.0000      -7.975943      -217.0364
  27   1.0000      -7.975098      -217.0135
  28   1.0000      -7.975012      -217.0111
  29   1.0000      -4.150929      -112.9525
  30   1.0000      -2.672526       -72.7231
  31   1.0000      -2.672501       -72.7225
  32   1.0000      -2.671942       -72.7072
  33   1.0000      -1.440890       -39.2086
  34   1.0000      -1.137813       -30.9615
  35   1.0000      -1.093436       -29.7539
  36   1.0000      -1.047636       -28.5076
  37   1.0000      -1.035212       -28.1695
  38   1.0000      -1.031799       -28.0767
  39   1.0000      -1.025484       -27.9049
  40   1.0000      -1.005145       -27.3514
  41   1.0000      -0.967192       -26.3186
  42   1.0000      -0.904071       -24.6010
  43   1.0000      -0.821169       -22.3451
  44   1.0000      -0.739268       -20.1165
  45   1.0000      -0.706771       -19.2322
  46   1.0000      -0.693742       -18.8777
  47   1.0000      -0.682900       -18.5826
  48   1.0000      -0.662572       -18.0295
  49   1.0000      -0.628855       -17.1120
  50   1.0000      -0.621163       -16.9027
  51   1.0000      -0.604959       -16.4618
  52   1.0000      -0.597597       -16.2614
  53   1.0000      -0.583853       -15.8874
  54   1.0000      -0.574646       -15.6369
  55   1.0000      -0.561064       -15.2673
  56   1.0000      -0.557090       -15.1592
  57   1.0000      -0.547488       -14.8979
  58   1.0000      -0.544514       -14.8170
  59   1.0000      -0.532431       -14.4882
  60   1.0000      -0.520069       -14.1518
  61   1.0000      -0.502163       -13.6646
  62   1.0000      -0.498011       -13.5516
  63   1.0000      -0.481385       -13.0992
  64   1.0000      -0.478743       -13.0272
  65   1.0000      -0.450762       -12.2659
  66   1.0000      -0.447358       -12.1732
  67   1.0000      -0.444625       -12.0988
  68   1.0000      -0.428786       -11.6679
  69   1.0000      -0.425336       -11.5740
  70   1.0000      -0.410321       -11.1654
  71   1.0000      -0.364964        -9.9312
  72   0.0000       0.012157         0.3308
  73   0.0000       0.022639         0.6160
  74   0.0000       0.023606         0.6423
  75   0.0000       0.030037         0.8173
  76   0.0000       0.038551         1.0490

E(0)                                       ...  -3028.451990325
E(0)                                       ...  -3028.451990325
E(CORR)(strong-pairs)                      ...     -2.870872668
E(CORR)(weak-pairs)                        ...     -0.035670587
E(CORR)(corrected)                         ...     -2.906543256
E(TOT)                                     ...  -3031.358533581
E(CCSD(T))                                 ...  -3031.477455587
FINAL SINGLE POINT ENERGY     -3031.477455586773

DIPOLE MOMENT
-------------
                                X             Y             Z
Electronic contribution:     42.93919       4.86719       1.31876
Nuclear contribution   :    -46.62070      -6.03966      -1.91136
                        -----------------------------------------
Total Dipole Moment    :     -3.68151      -1.17247      -0.59260
                        -----------------------------------------
Magnitude (a.u.)       :      3.90888
Magnitude (Debye)      :      9.93559

Rotational constants in cm-1:     0.019032     0.010876     0.010234
Rotational constants in MHz :   570.554341   326.060012   306.804711

                             ****ORCA TERMINATED NORMALLY****
TOTAL RUN TIME: 0 days 18 hours 12 minutes 13 seconds 494 msec
