                         Program Version 4.1.2  - RELEASE  -
|  1> ! aug-cc-pVTZ aug-cc-pVTZ/C DLPNO-CCSD(T1) TightSCF NormalPNO UNO MiniPrint AutoAux
|  2> %pal nproc 10 end
|  3> %maxcore 20000
|  4> %mdci
|  5>      density none
|  6> end
|  7>
|  8> * xyz 0 6
|  9>  O     -0.31049600     -0.19043300     -0.67948600
| 10>  C     -1.11054900     -1.16061500     -0.58413300
| 11>  C     -3.23506800      0.05199900      0.13592200
| 12>  C     -2.38114500      1.03705200     -0.22318800
| 13>  C     -2.35534600      1.57646700     -1.62471700
| 14> Fe      1.47142300      0.09505700      0.05862200
| 15> Cl      2.10231900      1.98000800     -0.83562200
| 16>  C     -1.55107700      1.80913600      0.76212400
| 17> Cl      2.48671500     -1.71339300     -0.65848100
| 18> Cl      1.34283600      0.13046500      2.24962700
| 19>  H     -3.87370200     -0.36355600     -0.64269500
| 20>  H     -2.13202400      2.67561300      1.10762800
| 21>  H     -1.26491700      1.23343700      1.64334400
| 22>  H     -0.64430200      2.20350900      0.29537200
| 23>  H     -2.63986500      2.63672400     -1.60473600
| 24>  H     -1.34387400      1.53149800     -2.04309800
| 25>  H     -3.05218900      1.05713100     -2.28866500
| 26>  C     -3.56689800     -0.38095400      1.53707300
| 27>  H     -4.48801100      0.11549500      1.87209100
| 28>  H     -3.75437600     -1.45861400      1.59766300
| 29>  H     -2.78484800     -0.13015700      2.25803000
| 30>  C     -1.07199000     -2.05214600      0.61698800
| 31>  H     -1.96998900     -2.66288300      0.71111600
| 32>  H     -0.21244400     -2.72257500      0.46354300
| 33>  H     -0.88226300     -1.48935000      1.53142000
| 34>  C     -1.73314700     -1.68384200     -1.84329500
| 35>  H     -0.99565200     -2.38332500     -2.26529400
| 36>  H     -2.65618600     -2.23426800     -1.65623200
| 37>  H     -1.88886700     -0.88962700     -2.57233100
| 38> *
| 39>
| 40>
| 41>                          ****END OF INPUT****

CARTESIAN COORDINATES (ANGSTROEM)
---------------------------------
  O     -0.310496   -0.190433   -0.679486
  C     -1.110549   -1.160615   -0.584133
  C     -3.235068    0.051999    0.135922
  C     -2.381145    1.037052   -0.223188
  C     -2.355346    1.576467   -1.624717
  Fe     1.471423    0.095057    0.058622
  Cl     2.102319    1.980008   -0.835622
  C     -1.551077    1.809136    0.762124
  Cl     2.486715   -1.713393   -0.658481
  Cl     1.342836    0.130465    2.249627
  H     -3.873702   -0.363556   -0.642695
  H     -2.132024    2.675613    1.107628
  H     -1.264917    1.233437    1.643344
  H     -0.644302    2.203509    0.295372
  H     -2.639865    2.636724   -1.604736
  H     -1.343874    1.531498   -2.043098
  H     -3.052189    1.057131   -2.288665
  C     -3.566898   -0.380954    1.537073
  H     -4.488011    0.115495    1.872091
  H     -3.754376   -1.458614    1.597663
  H     -2.784848   -0.130157    2.258030
  C     -1.071990   -2.052146    0.616988
  H     -1.969989   -2.662883    0.711116
  H     -0.212444   -2.722575    0.463543
  H     -0.882263   -1.489350    1.531420
  C     -1.733147   -1.683842   -1.843295
  H     -0.995652   -2.383325   -2.265294
  H     -2.656186   -2.234268   -1.656232
  H     -1.888867   -0.889627   -2.572331

ORBITAL ENERGIES
----------------
                 SPIN UP ORBITALS
  NO   OCC          E(Eh)            E(eV)
   0   1.0000    -261.573841     -7117.7861
   1   1.0000    -104.791335     -2851.5172
   2   1.0000    -104.789791     -2851.4752
   3   1.0000    -104.788439     -2851.4384
   4   1.0000     -32.241545      -877.3370
   5   1.0000     -27.717994      -754.2450
   6   1.0000     -27.716906      -754.2154
   7   1.0000     -27.716759      -754.2114
   8   1.0000     -20.607758      -560.7656
   9   1.0000     -11.423408      -310.8467
  10   1.0000     -11.276867      -306.8592
  11   1.0000     -11.275839      -306.8312
  12   1.0000     -11.272051      -306.7281
  13   1.0000     -11.245133      -305.9956
  14   1.0000     -11.244125      -305.9682
  15   1.0000     -11.240617      -305.8727
  16   1.0000     -11.234248      -305.6994
  17   1.0000     -10.518022      -286.2099
  18   1.0000     -10.516435      -286.1667
  19   1.0000     -10.515042      -286.1288
  20   1.0000      -7.984862      -217.2791
  21   1.0000      -7.984103      -217.2585
  22   1.0000      -7.984055      -217.2572
  23   1.0000      -7.983328      -217.2374
  24   1.0000      -7.982528      -217.2156
  25   1.0000      -7.982446      -217.2134
  26   1.0000      -7.981828      -217.1966
  27   1.0000      -7.981166      -217.1786
  28   1.0000      -7.981112      -217.1771
  29   1.0000      -4.596529      -125.0779
  30   1.0000      -3.209700       -87.3404
  31   1.0000      -3.207970       -87.2933
  32   1.0000      -3.207797       -87.2886
  33   1.0000      -1.460403       -39.7396
  34   1.0000      -1.131551       -30.7911
  35   1.0000      -1.101376       -29.9700
  36   1.0000      -1.064793       -28.9745
  37   1.0000      -1.059352       -28.8264
  38   1.0000      -1.057255       -28.7694
  39   1.0000      -1.023078       -27.8394
  40   1.0000      -1.011905       -27.5353
  41   1.0000      -0.962398       -26.1882
  42   1.0000      -0.941571       -25.6215
  43   1.0000      -0.925669       -25.1887
  44   1.0000      -0.925499       -25.1841
  45   1.0000      -0.914686       -24.8899
  46   1.0000      -0.914575       -24.8869
  47   1.0000      -0.900615       -24.5070
  48   1.0000      -0.811014       -22.0688
  49   1.0000      -0.733188       -19.9511
  50   1.0000      -0.709791       -19.3144
  51   1.0000      -0.702526       -19.1167
  52   1.0000      -0.691637       -18.8204
  53   1.0000      -0.657541       -17.8926
  54   1.0000      -0.625087       -17.0095
  55   1.0000      -0.621448       -16.9105
  56   1.0000      -0.602458       -16.3937
  57   1.0000      -0.601031       -16.3549
  58   1.0000      -0.585236       -15.9251
  59   1.0000      -0.579725       -15.7751
  60   1.0000      -0.560028       -15.2391
  61   1.0000      -0.558259       -15.1910
  62   1.0000      -0.553713       -15.0673
  63   1.0000      -0.540289       -14.7020
  64   1.0000      -0.532107       -14.4794
  65   1.0000      -0.527591       -14.3565
  66   1.0000      -0.500851       -13.6288
  67   1.0000      -0.496828       -13.5194
  68   1.0000      -0.476862       -12.9761
  69   1.0000      -0.473030       -12.8718
  70   1.0000      -0.445593       -12.1252
  71   1.0000      -0.439272       -11.9532
  72   1.0000      -0.437840       -11.9142
  73   1.0000      -0.429364       -11.6836
  74   1.0000      -0.427649       -11.6369
  75   1.0000      -0.427462       -11.6318
  76   1.0000      -0.359129        -9.7724
  77   0.0000       0.012864         0.3500
  78   0.0000       0.023821         0.6482
  79   0.0000       0.024223         0.6591
  80   0.0000       0.030436         0.8282
  81   0.0000       0.039654         1.0790

                 SPIN DOWN ORBITALS
  NO   OCC          E(Eh)            E(eV)
   0   1.0000    -261.570272     -7117.6890
   1   1.0000    -104.789839     -2851.4765
   2   1.0000    -104.788268     -2851.4337
   3   1.0000    -104.786911     -2851.3968
   4   1.0000     -32.079564      -872.9293
   5   1.0000     -27.557495      -749.8776
   6   1.0000     -27.557419      -749.8755
   7   1.0000     -27.557262      -749.8712
   8   1.0000     -20.604194      -560.6686
   9   1.0000     -11.423229      -310.8419
  10   1.0000     -11.276771      -306.8566
  11   1.0000     -11.275972      -306.8348
  12   1.0000     -11.272048      -306.7280
  13   1.0000     -11.244942      -305.9904
  14   1.0000     -11.244110      -305.9678
  15   1.0000     -11.240595      -305.8721
  16   1.0000     -11.234251      -305.6995
  17   1.0000     -10.516425      -286.1665
  18   1.0000     -10.514807      -286.1224
  19   1.0000     -10.513417      -286.0846
  20   1.0000      -7.982341      -217.2106
  21   1.0000      -7.981615      -217.1908
  22   1.0000      -7.981559      -217.1893
  23   1.0000      -7.980671      -217.1651
  24   1.0000      -7.980043      -217.1480
  25   1.0000      -7.979939      -217.1452
  26   1.0000      -7.979410      -217.1308
  27   1.0000      -7.978540      -217.1071
  28   1.0000      -7.978457      -217.1049
  29   1.0000      -4.154395      -113.0468
  30   1.0000      -2.675956       -72.8165
  31   1.0000      -2.675884       -72.8145
  32   1.0000      -2.675556       -72.8056
  33   1.0000      -1.451440       -39.4957
  34   1.0000      -1.131173       -30.7808
  35   1.0000      -1.098996       -29.9052
  36   1.0000      -1.049304       -28.5530
  37   1.0000      -1.036912       -28.2158
  38   1.0000      -1.035113       -28.1669
  39   1.0000      -1.022516       -27.8241
  40   1.0000      -1.011257       -27.5177
  41   1.0000      -0.962222       -26.1834
  42   1.0000      -0.900955       -24.5162
  43   1.0000      -0.824189       -22.4273
  44   1.0000      -0.733259       -19.9530
  45   1.0000      -0.712354       -19.3841
  46   1.0000      -0.701718       -19.0947
  47   1.0000      -0.690741       -18.7960
  48   1.0000      -0.657523       -17.8921
  49   1.0000      -0.624936       -17.0054
  50   1.0000      -0.621091       -16.9007
  51   1.0000      -0.602286       -16.3890
  52   1.0000      -0.601000       -16.3540
  53   1.0000      -0.584845       -15.9144
  54   1.0000      -0.579025       -15.7561
  55   1.0000      -0.559637       -15.2285
  56   1.0000      -0.557845       -15.1797
  57   1.0000      -0.551290       -15.0014
  58   1.0000      -0.540219       -14.7001
  59   1.0000      -0.530243       -14.4286
  60   1.0000      -0.519737       -14.1428
  61   1.0000      -0.500946       -13.6314
  62   1.0000      -0.496629       -13.5140
  63   1.0000      -0.482983       -13.1426
  64   1.0000      -0.481884       -13.1127
  65   1.0000      -0.452580       -12.3153
  66   1.0000      -0.449431       -12.2296
  67   1.0000      -0.446845       -12.1593
  68   1.0000      -0.431077       -11.7302
  69   1.0000      -0.428202       -11.6520
  70   1.0000      -0.412494       -11.2245
  71   1.0000      -0.358228        -9.7479
  72   0.0000       0.012852         0.3497
  73   0.0000       0.023795         0.6475
  74   0.0000       0.024189         0.6582
  75   0.0000       0.030405         0.8274
  76   0.0000       0.039576         1.0769

E(0)                                       ...  -3028.448893035
E(0)                                       ...  -3028.448893035
E(CORR)(strong-pairs)                      ...     -2.869403116
E(CORR)(weak-pairs)                        ...     -0.036437423
E(CORR)(corrected)                         ...     -2.905840539
E(TOT)                                     ...  -3031.354733574
E(CCSD(T))                                 ...  -3031.473137995
FINAL SINGLE POINT ENERGY     -3031.473137994621

DIPOLE MOMENT
-------------
                                X             Y             Z
Electronic contribution:     43.45529       2.57566       2.21354
Nuclear contribution   :    -46.92828      -3.67657      -2.80266
                        -----------------------------------------
Total Dipole Moment    :     -3.47299      -1.10091      -0.58912
                        -----------------------------------------
Magnitude (a.u.)       :      3.69063
Magnitude (Debye)      :      9.38083

Rotational constants in cm-1:     0.019284     0.010877     0.010254
Rotational constants in MHz :   578.119315   326.092438   307.392291

                             ****ORCA TERMINATED NORMALLY****
TOTAL RUN TIME: 0 days 18 hours 17 minutes 35 seconds 455 msec
