                         Program Version 4.1.2  - RELEASE  -
|  1> ! aug-cc-pVTZ aug-cc-pVTZ/C DLPNO-CCSD(T1) TightSCF NormalPNO UNO MiniPrint AutoAux
|  2> %pal nproc 10 end
|  3> %maxcore 20000
|  4> %mdci
|  5>      density none
|  6> end
|  7>
|  8> * xyz 0 6
|  9>  O     -0.44219100     -0.15163000     -0.49180500
| 10>  C     -1.43982500     -1.20590600     -0.34064000
| 11>  C     -2.79372600     -0.10412000     -0.21607200
| 12>  C     -1.89993200      1.12642100     -0.28178600
| 13>  C     -1.82103800      1.87833600     -1.56438300
| 14> Fe      1.37114100      0.04003600      0.04068400
| 15> Cl      1.87651000      1.99062700     -0.85590400
| 16>  C     -1.54489400      1.86694200      0.96031600
| 17> Cl      2.39149700     -1.73013700     -0.74910300
| 18> Cl      1.38994300      0.14228500      2.24561900
| 19>  H     -3.37150600     -0.19248000     -1.13964300
| 20>  H     -2.40896700      2.49719800      1.22086900
| 21>  H     -1.34112700      1.20547400      1.80243900
| 22>  H     -0.68435500      2.51956100      0.79695800
| 23>  H     -2.64068700      2.61406400     -1.56341300
| 24>  H     -0.87430100      2.41821100     -1.64535900
| 25>  H     -1.95179200      1.22315100     -2.42740000
| 26>  C     -3.69068500     -0.26392000      0.99895800
| 27>  H     -4.45392600      0.52278600      1.03399900
| 28>  H     -4.21288600     -1.22429900      0.94792700
| 29>  H     -3.13467500     -0.23653900      1.93906000
| 30>  C     -1.20570800     -2.02612300      0.90752900
| 31>  H     -2.02120900     -2.74128800      1.05625400
| 32>  H     -0.27384900     -2.59291400      0.79624300
| 33>  H     -1.10869600     -1.40111400      1.79724300
| 34>  C     -1.49272800     -2.03163700     -1.60677600
| 35>  H     -0.53354600     -2.54370600     -1.74394400
| 36>  H     -2.28658000     -2.78420500     -1.54634900
| 37>  H     -1.66798600     -1.39893300     -2.48151600
| 38> *
| 39>
| 40>
| 41>                          ****END OF INPUT****

CARTESIAN COORDINATES (ANGSTROEM)
---------------------------------
  O     -0.442191   -0.151630   -0.491805
  C     -1.439825   -1.205906   -0.340640
  C     -2.793726   -0.104120   -0.216072
  C     -1.899932    1.126421   -0.281786
  C     -1.821038    1.878336   -1.564383
  Fe     1.371141    0.040036    0.040684
  Cl     1.876510    1.990627   -0.855904
  C     -1.544894    1.866942    0.960316
  Cl     2.391497   -1.730137   -0.749103
  Cl     1.389943    0.142285    2.245619
  H     -3.371506   -0.192480   -1.139643
  H     -2.408967    2.497198    1.220869
  H     -1.341127    1.205474    1.802439
  H     -0.684355    2.519561    0.796958
  H     -2.640687    2.614064   -1.563413
  H     -0.874301    2.418211   -1.645359
  H     -1.951792    1.223151   -2.427400
  C     -3.690685   -0.263920    0.998958
  H     -4.453926    0.522786    1.033999
  H     -4.212886   -1.224299    0.947927
  H     -3.134675   -0.236539    1.939060
  C     -1.205708   -2.026123    0.907529
  H     -2.021209   -2.741288    1.056254
  H     -0.273849   -2.592914    0.796243
  H     -1.108696   -1.401114    1.797243
  C     -1.492728   -2.031637   -1.606776
  H     -0.533546   -2.543706   -1.743944
  H     -2.286580   -2.784205   -1.546349
  H     -1.667986   -1.398933   -2.481516

ORBITAL ENERGIES
----------------
                 SPIN UP ORBITALS
  NO   OCC          E(Eh)            E(eV)
   0   1.0000    -261.554506     -7117.2599
   1   1.0000    -104.780624     -2851.2257
   2   1.0000    -104.778433     -2851.1661
   3   1.0000    -104.777566     -2851.1425
   4   1.0000     -32.222425      -876.8168
   5   1.0000     -27.698453      -753.7132
   6   1.0000     -27.698045      -753.7021
   7   1.0000     -27.697799      -753.6954
   8   1.0000     -20.574966      -559.8733
   9   1.0000     -11.395242      -310.0803
  10   1.0000     -11.343189      -308.6639
  11   1.0000     -11.291697      -307.2627
  12   1.0000     -11.272462      -306.7393
  13   1.0000     -11.271017      -306.7000
  14   1.0000     -11.260329      -306.4091
  15   1.0000     -11.238797      -305.8232
  16   1.0000     -11.237407      -305.7854
  17   1.0000     -10.507250      -285.9168
  18   1.0000     -10.505118      -285.8588
  19   1.0000     -10.504211      -285.8341
  20   1.0000      -7.974071      -216.9855
  21   1.0000      -7.973342      -216.9657
  22   1.0000      -7.973275      -216.9638
  23   1.0000      -7.971996      -216.9290
  24   1.0000      -7.971171      -216.9066
  25   1.0000      -7.971139      -216.9057
  26   1.0000      -7.971010      -216.9022
  27   1.0000      -7.970326      -216.8836
  28   1.0000      -7.970263      -216.8819
  29   1.0000      -4.577741      -124.5667
  30   1.0000      -3.190237       -86.8108
  31   1.0000      -3.189798       -86.7988
  32   1.0000      -3.189263       -86.7843
  33   1.0000      -1.365783       -37.1649
  34   1.0000      -1.158296       -31.5188
  35   1.0000      -1.086960       -29.5777
  36   1.0000      -1.052580       -28.6421
  37   1.0000      -1.046712       -28.4825
  38   1.0000      -1.045338       -28.4451
  39   1.0000      -1.036222       -28.1970
  40   1.0000      -1.005339       -27.3567
  41   1.0000      -0.966827       -26.3087
  42   1.0000      -0.929619       -25.2962
  43   1.0000      -0.907166       -24.6852
  44   1.0000      -0.907062       -24.6824
  45   1.0000      -0.903301       -24.5801
  46   1.0000      -0.898301       -24.4440
  47   1.0000      -0.897637       -24.4259
  48   1.0000      -0.795681       -21.6516
  49   1.0000      -0.756753       -20.5923
  50   1.0000      -0.692724       -18.8500
  51   1.0000      -0.685807       -18.6617
  52   1.0000      -0.668376       -18.1874
  53   1.0000      -0.637393       -17.3444
  54   1.0000      -0.626558       -17.0495
  55   1.0000      -0.620745       -16.8913
  56   1.0000      -0.597623       -16.2622
  57   1.0000      -0.594194       -16.1689
  58   1.0000      -0.587872       -15.9968
  59   1.0000      -0.581649       -15.8275
  60   1.0000      -0.569350       -15.4928
  61   1.0000      -0.559408       -15.2223
  62   1.0000      -0.543926       -14.8010
  63   1.0000      -0.536348       -14.5948
  64   1.0000      -0.530895       -14.4464
  65   1.0000      -0.521080       -14.1793
  66   1.0000      -0.506684       -13.7876
  67   1.0000      -0.482706       -13.1351
  68   1.0000      -0.467698       -12.7267
  69   1.0000      -0.456993       -12.4354
  70   1.0000      -0.440652       -11.9907
  71   1.0000      -0.430431       -11.7126
  72   1.0000      -0.426847       -11.6151
  73   1.0000      -0.420663       -11.4468
  74   1.0000      -0.417604       -11.3636
  75   1.0000      -0.416613       -11.3366
  76   1.0000      -0.413096       -11.2409
  77   0.0000       0.009185         0.2499
  78   0.0000       0.021043         0.5726
  79   0.0000       0.023231         0.6322
  80   0.0000       0.031126         0.8470
  81   0.0000       0.037993         1.0338

                 SPIN DOWN ORBITALS
  NO   OCC          E(Eh)            E(eV)
   0   1.0000    -261.550953     -7117.1633
   1   1.0000    -104.779245     -2851.1882
   2   1.0000    -104.777011     -2851.1274
   3   1.0000    -104.776091     -2851.1024
   4   1.0000     -32.060470      -872.4098
   5   1.0000     -27.538467      -749.3598
   6   1.0000     -27.538332      -749.3561
   7   1.0000     -27.537970      -749.3463
   8   1.0000     -20.569964      -559.7372
   9   1.0000     -11.395274      -310.0812
  10   1.0000     -11.343048      -308.6600
  11   1.0000     -11.291569      -307.2592
  12   1.0000     -11.272444      -306.7388
  13   1.0000     -11.271027      -306.7002
  14   1.0000     -11.260321      -306.4089
  15   1.0000     -11.238766      -305.8224
  16   1.0000     -11.237399      -305.7852
  17   1.0000     -10.505773      -285.8766
  18   1.0000     -10.503592      -285.8173
  19   1.0000     -10.502634      -285.7912
  20   1.0000      -7.971733      -216.9219
  21   1.0000      -7.971057      -216.9035
  22   1.0000      -7.970994      -216.9018
  23   1.0000      -7.969492      -216.8609
  24   1.0000      -7.968882      -216.8443
  25   1.0000      -7.968819      -216.8426
  26   1.0000      -7.968611      -216.8369
  27   1.0000      -7.967817      -216.8153
  28   1.0000      -7.967767      -216.8140
  29   1.0000      -4.135691      -112.5379
  30   1.0000      -2.657594       -72.3168
  31   1.0000      -2.657423       -72.3122
  32   1.0000      -2.656509       -72.2873
  33   1.0000      -1.352717       -36.8093
  34   1.0000      -1.156639       -31.4737
  35   1.0000      -1.084510       -29.5110
  36   1.0000      -1.037684       -28.2368
  37   1.0000      -1.035182       -28.1687
  38   1.0000      -1.026367       -27.9289
  39   1.0000      -1.024405       -27.8755
  40   1.0000      -1.005068       -27.3493
  41   1.0000      -0.966247       -26.2929
  42   1.0000      -0.920198       -25.0398
  43   1.0000      -0.797996       -21.7146
  44   1.0000      -0.760454       -20.6930
  45   1.0000      -0.692777       -18.8514
  46   1.0000      -0.685563       -18.6551
  47   1.0000      -0.668911       -18.2020
  48   1.0000      -0.638048       -17.3622
  49   1.0000      -0.626656       -17.0522
  50   1.0000      -0.619213       -16.8496
  51   1.0000      -0.597480       -16.2582
  52   1.0000      -0.593452       -16.1487
  53   1.0000      -0.587807       -15.9950
  54   1.0000      -0.579831       -15.7780
  55   1.0000      -0.569186       -15.4883
  56   1.0000      -0.559158       -15.2155
  57   1.0000      -0.540401       -14.7051
  58   1.0000      -0.535771       -14.5791
  59   1.0000      -0.529077       -14.3969
  60   1.0000      -0.515516       -14.0279
  61   1.0000      -0.506271       -13.7763
  62   1.0000      -0.478921       -13.0321
  63   1.0000      -0.471344       -12.8259
  64   1.0000      -0.467171       -12.7124
  65   1.0000      -0.441796       -12.0219
  66   1.0000      -0.438767       -11.9395
  67   1.0000      -0.438039       -11.9197
  68   1.0000      -0.434089       -11.8122
  69   1.0000      -0.417091       -11.3496
  70   1.0000      -0.409417       -11.1408
  71   1.0000      -0.403524       -10.9804
  72   0.0000       0.009168         0.2495
  73   0.0000       0.020968         0.5706
  74   0.0000       0.023210         0.6316
  75   0.0000       0.031173         0.8482
  76   0.0000       0.037997         1.0340

E(0)                                       ...  -3028.438624015
E(0)                                       ...  -3028.438624015
E(CORR)(strong-pairs)                      ...     -2.876081891
E(CORR)(weak-pairs)                        ...     -0.035530992
E(CORR)(corrected)                         ...     -2.911612883
E(TOT)                                     ...  -3031.350236898
E(CCSD(T))                                 ...  -3031.469503183
FINAL SINGLE POINT ENERGY     -3031.469503182615

DIPOLE MOMENT
-------------
                                X             Y             Z
Electronic contribution:     40.26096       3.15679       1.76766
Nuclear contribution   :    -44.62456      -2.74301      -2.15497
                        -----------------------------------------
Total Dipole Moment    :     -4.36360       0.41378      -0.38731
                        -----------------------------------------
Magnitude (a.u.)       :      4.40026
Magnitude (Debye)      :     11.18456

Rotational constants in cm-1:     0.018884     0.012099     0.010837
Rotational constants in MHz :   566.125013   362.726958   324.878812

                             ****ORCA TERMINATED NORMALLY****
TOTAL RUN TIME: 0 days 21 hours 2 minutes 17 seconds 879 msec
