                         Program Version 4.1.2  - RELEASE  -
|  1> ! aug-cc-pVTZ aug-cc-pVTZ/C DLPNO-CCSD(T1) TightSCF NormalPNO UNO MiniPrint AutoAux
|  2> %pal nproc 10 end
|  3> %maxcore 20000
|  4> %mdci
|  5>      density none
|  6> end
|  7>
|  8> * xyz 0 6
|  9>  O     -0.40423100     -0.16372200     -0.49599600
| 10>  C     -1.36003800     -1.21272700     -0.38324400
| 11>  C     -2.87938200     -0.09188300     -0.17040700
| 12>  C     -2.00516700      1.09932800     -0.28563300
| 13>  C     -1.88292600      1.78686300     -1.59689900
| 14> Fe      1.38212000      0.05321000      0.04640400
| 15> Cl      1.84880400      2.02545500     -0.83981000
| 16>  C     -1.57772500      1.85389400      0.91987400
| 17> Cl      2.46696800     -1.69206500     -0.72657800
| 18> Cl      1.35474500      0.14631400      2.25922300
| 19>  H     -3.47760400     -0.23917200     -1.07078600
| 20>  H     -2.43026800      2.48816500      1.21219000
| 21>  H     -1.34170800      1.20417200      1.76305900
| 22>  H     -0.72356400      2.49931500      0.70643300
| 23>  H     -2.65569800      2.57283100     -1.61457900
| 24>  H     -0.90586600      2.26472600     -1.70234500
| 25>  H     -2.06904000      1.11233100     -2.43418900
| 26>  C     -3.66509400     -0.32055300      1.10384700
| 27>  H     -4.46272200      0.42422300      1.22042800
| 28>  H     -4.14068900     -1.30541100      1.07302100
| 29>  H     -3.03864100     -0.28229100      1.99812200
| 30>  C     -1.16185900     -2.07385700      0.83565300
| 31>  H     -1.97939600     -2.79156900      0.95162300
| 32>  H     -0.22802300     -2.63741500      0.70675700
| 33>  H     -1.05964200     -1.47872200      1.74463400
| 34>  C     -1.48482000     -1.96944400     -1.68132100
| 35>  H     -0.52959900     -2.47518800     -1.87331600
| 36>  H     -2.27888000     -2.72114700     -1.63056700
| 37>  H     -1.67667400     -1.29323300     -2.51841900
| 38> *
| 39>
| 40>
| 41>                          ****END OF INPUT****

CARTESIAN COORDINATES (ANGSTROEM)
---------------------------------
  O     -0.404231   -0.163722   -0.495996
  C     -1.360038   -1.212727   -0.383244
  C     -2.879382   -0.091883   -0.170407
  C     -2.005167    1.099328   -0.285633
  C     -1.882926    1.786863   -1.596899
  Fe     1.382120    0.053210    0.046404
  Cl     1.848804    2.025455   -0.839810
  C     -1.577725    1.853894    0.919874
  Cl     2.466968   -1.692065   -0.726578
  Cl     1.354745    0.146314    2.259223
  H     -3.477604   -0.239172   -1.070786
  H     -2.430268    2.488165    1.212190
  H     -1.341708    1.204172    1.763059
  H     -0.723564    2.499315    0.706433
  H     -2.655698    2.572831   -1.614579
  H     -0.905866    2.264726   -1.702345
  H     -2.069040    1.112331   -2.434189
  C     -3.665094   -0.320553    1.103847
  H     -4.462722    0.424223    1.220428
  H     -4.140689   -1.305411    1.073021
  H     -3.038641   -0.282291    1.998122
  C     -1.161859   -2.073857    0.835653
  H     -1.979396   -2.791569    0.951623
  H     -0.228023   -2.637415    0.706757
  H     -1.059642   -1.478722    1.744634
  C     -1.484820   -1.969444   -1.681321
  H     -0.529599   -2.475188   -1.873316
  H     -2.278880   -2.721147   -1.630567
  H     -1.676674   -1.293233   -2.518419

ORBITAL ENERGIES
----------------
                 SPIN UP ORBITALS
  NO   OCC          E(Eh)            E(eV)
   0   1.0000    -261.551159     -7117.1689
   1   1.0000    -104.778456     -2851.1667
   2   1.0000    -104.776359     -2851.1097
   3   1.0000    -104.775652     -2851.0904
   4   1.0000     -32.219068      -876.7254
   5   1.0000     -27.694996      -753.6192
   6   1.0000     -27.694766      -753.6129
   7   1.0000     -27.694495      -753.6055
   8   1.0000     -20.560758      -559.4867
   9   1.0000     -11.397640      -310.1456
  10   1.0000     -11.360384      -309.1318
  11   1.0000     -11.286416      -307.1190
  12   1.0000     -11.275122      -306.8117
  13   1.0000     -11.272407      -306.7378
  14   1.0000     -11.259830      -306.3956
  15   1.0000     -11.243512      -305.9515
  16   1.0000     -11.240487      -305.8692
  17   1.0000     -10.505018      -285.8561
  18   1.0000     -10.502984      -285.8007
  19   1.0000     -10.502247      -285.7807
  20   1.0000      -7.971837      -216.9247
  21   1.0000      -7.971104      -216.9048
  22   1.0000      -7.971033      -216.9028
  23   1.0000      -7.969872      -216.8712
  24   1.0000      -7.969048      -216.8488
  25   1.0000      -7.969035      -216.8485
  26   1.0000      -7.968988      -216.8472
  27   1.0000      -7.968358      -216.8300
  28   1.0000      -7.968289      -216.8282
  29   1.0000      -4.574464      -124.4775
  30   1.0000      -3.186938       -86.7210
  31   1.0000      -3.186620       -86.7123
  32   1.0000      -3.186007       -86.6957
  33   1.0000      -1.366480       -37.1838
  34   1.0000      -1.166737       -31.7485
  35   1.0000      -1.082906       -29.4674
  36   1.0000      -1.049799       -28.5665
  37   1.0000      -1.043846       -28.4045
  38   1.0000      -1.042693       -28.3731
  39   1.0000      -1.039509       -28.2865
  40   1.0000      -1.008261       -27.4362
  41   1.0000      -0.971854       -26.4455
  42   1.0000      -0.927395       -25.2357
  43   1.0000      -0.906291       -24.6614
  44   1.0000      -0.903992       -24.5989
  45   1.0000      -0.903347       -24.5813
  46   1.0000      -0.895506       -24.3679
  47   1.0000      -0.894910       -24.3517
  48   1.0000      -0.787640       -21.4328
  49   1.0000      -0.759561       -20.6687
  50   1.0000      -0.694246       -18.8914
  51   1.0000      -0.686250       -18.6738
  52   1.0000      -0.668537       -18.1918
  53   1.0000      -0.642306       -17.4780
  54   1.0000      -0.629793       -17.1375
  55   1.0000      -0.625193       -17.0124
  56   1.0000      -0.597092       -16.2477
  57   1.0000      -0.595375       -16.2010
  58   1.0000      -0.589972       -16.0540
  59   1.0000      -0.580453       -15.7949
  60   1.0000      -0.572792       -15.5865
  61   1.0000      -0.560339       -15.2476
  62   1.0000      -0.548602       -14.9282
  63   1.0000      -0.539771       -14.6879
  64   1.0000      -0.534589       -14.5469
  65   1.0000      -0.526208       -14.3189
  66   1.0000      -0.507917       -13.8211
  67   1.0000      -0.481726       -13.1084
  68   1.0000      -0.464552       -12.6411
  69   1.0000      -0.453458       -12.3392
  70   1.0000      -0.433350       -11.7921
  71   1.0000      -0.427807       -11.6412
  72   1.0000      -0.424508       -11.5515
  73   1.0000      -0.418468       -11.3871
  74   1.0000      -0.415738       -11.3128
  75   1.0000      -0.414666       -11.2836
  76   1.0000      -0.390650       -10.6301
  77   0.0000       0.008753         0.2382
  78   0.0000       0.020410         0.5554
  79   0.0000       0.022695         0.6176
  80   0.0000       0.030939         0.8419
  81   0.0000       0.037476         1.0198

                 SPIN DOWN ORBITALS
  NO   OCC          E(Eh)            E(eV)
   0   1.0000    -261.547608     -7117.0722
   1   1.0000    -104.777119     -2851.1304
   2   1.0000    -104.774969     -2851.0719
   3   1.0000    -104.774206     -2851.0511
   4   1.0000     -32.057102      -872.3181
   5   1.0000     -27.535135      -749.2691
   6   1.0000     -27.534974      -749.2647
   7   1.0000     -27.534560      -749.2535
   8   1.0000     -20.555317      -559.3386
   9   1.0000     -11.397688      -310.1469
  10   1.0000     -11.360317      -309.1300
  11   1.0000     -11.286135      -307.1114
  12   1.0000     -11.275101      -306.8111
  13   1.0000     -11.272416      -306.7380
  14   1.0000     -11.259844      -306.3959
  15   1.0000     -11.243459      -305.9501
  16   1.0000     -11.240467      -305.8687
  17   1.0000     -10.503584      -285.8170
  18   1.0000     -10.501491      -285.7601
  19   1.0000     -10.500700      -285.7386
  20   1.0000      -7.969547      -216.8624
  21   1.0000      -7.968903      -216.8449
  22   1.0000      -7.968831      -216.8429
  23   1.0000      -7.967381      -216.8034
  24   1.0000      -7.966819      -216.7882
  25   1.0000      -7.966749      -216.7862
  26   1.0000      -7.966676      -216.7843
  27   1.0000      -7.965911      -216.7635
  28   1.0000      -7.965855      -216.7619
  29   1.0000      -4.132400      -112.4483
  30   1.0000      -2.654287       -72.2268
  31   1.0000      -2.654131       -72.2226
  32   1.0000      -2.653346       -72.2012
  33   1.0000      -1.352163       -36.7942
  34   1.0000      -1.165453       -31.7136
  35   1.0000      -1.080152       -29.3924
  36   1.0000      -1.038602       -28.2618
  37   1.0000      -1.035063       -28.1655
  38   1.0000      -1.024124       -27.8678
  39   1.0000      -1.022256       -27.8170
  40   1.0000      -1.007945       -27.4276
  41   1.0000      -0.971301       -26.4305
  42   1.0000      -0.921058       -25.0633
  43   1.0000      -0.792036       -21.5524
  44   1.0000      -0.763479       -20.7753
  45   1.0000      -0.694358       -18.8944
  46   1.0000      -0.685847       -18.6628
  47   1.0000      -0.669261       -18.2115
  48   1.0000      -0.643494       -17.5104
  49   1.0000      -0.627977       -17.0881
  50   1.0000      -0.625301       -17.0153
  51   1.0000      -0.596114       -16.2211
  52   1.0000      -0.595434       -16.2026
  53   1.0000      -0.589934       -16.0529
  54   1.0000      -0.578541       -15.7429
  55   1.0000      -0.572608       -15.5815
  56   1.0000      -0.560316       -15.2470
  57   1.0000      -0.546608       -14.8740
  58   1.0000      -0.539246       -14.6736
  59   1.0000      -0.533504       -14.5174
  60   1.0000      -0.520783       -14.1712
  61   1.0000      -0.504770       -13.7355
  62   1.0000      -0.477575       -12.9955
  63   1.0000      -0.468709       -12.7542
  64   1.0000      -0.463951       -12.6247
  65   1.0000      -0.439281       -11.9534
  66   1.0000      -0.436427       -11.8758
  67   1.0000      -0.434512       -11.8237
  68   1.0000      -0.424042       -11.5388
  69   1.0000      -0.413820       -11.2606
  70   1.0000      -0.401973       -10.9382
  71   1.0000      -0.389918       -10.6102
  72   0.0000       0.008729         0.2375
  73   0.0000       0.020298         0.5523
  74   0.0000       0.022675         0.6170
  75   0.0000       0.030984         0.8431
  76   0.0000       0.037391         1.0175

E(0)                                       ...  -3028.419429674
E(0)                                       ...  -3028.419429674
E(CORR)(strong-pairs)                      ...     -2.873611579
E(CORR)(weak-pairs)                        ...     -0.035921674
E(CORR)(corrected)                         ...     -2.909533252
E(TOT)                                     ...  -3031.328962927
E(CCSD(T))                                 ...  -3031.448387365
FINAL SINGLE POINT ENERGY     -3031.448387364950

DIPOLE MOMENT
-------------
                                X             Y             Z
Electronic contribution:     40.24024       3.73388       2.07903
Nuclear contribution   :    -44.71255      -3.42134      -2.54806
                        -----------------------------------------
Total Dipole Moment    :     -4.47231       0.31254      -0.46903
                        -----------------------------------------
Magnitude (a.u.)       :      4.50768
Magnitude (Debye)      :     11.45762

Rotational constants in cm-1:     0.018892     0.011917     0.010774
Rotational constants in MHz :   566.381339   357.248128   322.996334

                             ****ORCA TERMINATED NORMALLY****
TOTAL RUN TIME: 0 days 20 hours 58 minutes 24 seconds 313 msec
