                         Program Version 4.1.2  - RELEASE  -
|  1> ! aug-cc-pVTZ aug-cc-pVTZ/C DLPNO-CCSD(T1) TightSCF NormalPNO UNO MiniPrint AutoAux
|  2> %pal nproc 10 end
|  3> %maxcore 20000
|  4> %mdci
|  5>      density none
|  6> end
|  7>
|  8> * xyz 0 6
|  9>  O     -0.33229400     -0.10921700     -0.58428100
| 10>  C     -1.24543700     -1.03161100     -0.51920700
| 11>  C     -3.07832400     -0.03185000     -0.00588500
| 12>  C     -2.27360000      1.06288100     -0.20017200
| 13>  C     -2.15737600      1.72496100     -1.53395700
| 14> Fe      1.44577200      0.06033100      0.04933800
| 15> Cl      2.04033100      2.01169100     -0.76379600
| 16>  C     -1.57724300      1.75919100      0.92437700
| 17> Cl      2.45276800     -1.71716700     -0.76555700
| 18> Cl      1.37397600      0.02799200      2.25716400
| 19>  H     -3.66893500     -0.35508900     -0.85998600
| 20>  H     -2.28198000      2.49001900      1.34813900
| 21>  H     -1.27414300      1.08953600      1.72998400
| 22>  H     -0.69944600      2.30583300      0.57297600
| 23>  H     -2.56737800      2.74007200     -1.43921200
| 24>  H     -1.10626300      1.82902700     -1.81981900
| 25>  H     -2.71422200      1.20861400     -2.31869700
| 26>  C     -3.60495100     -0.47999000      1.33430500
| 27>  H     -4.51851600      0.08160900      1.56999900
| 28>  H     -3.87515500     -1.53960200      1.32691700
| 29>  H     -2.89963100     -0.31294900      2.15095800
| 30>  C     -1.15446900     -2.00810000      0.62389500
| 31>  H     -2.01883600     -2.66963500      0.68834500
| 32>  H     -0.26685100     -2.62047000      0.40715800
| 33>  H     -0.97275200     -1.50935500      1.57623900
| 34>  C     -1.67416500     -1.60261700     -1.84985200
| 35>  H     -0.82208500     -2.20335200     -2.19732100
| 36>  H     -2.55008600     -2.24958900     -1.76822600
| 37>  H     -1.84232800     -0.81949500     -2.58981500
| 38> *
| 39>
| 40>
| 41>                          ****END OF INPUT****

CARTESIAN COORDINATES (ANGSTROEM)
---------------------------------
  O     -0.332294   -0.109217   -0.584281
  C     -1.245437   -1.031611   -0.519207
  C     -3.078324   -0.031850   -0.005885
  C     -2.273600    1.062881   -0.200172
  C     -2.157376    1.724961   -1.533957
  Fe     1.445772    0.060331    0.049338
  Cl     2.040331    2.011691   -0.763796
  C     -1.577243    1.759191    0.924377
  Cl     2.452768   -1.717167   -0.765557
  Cl     1.373976    0.027992    2.257164
  H     -3.668935   -0.355089   -0.859986
  H     -2.281980    2.490019    1.348139
  H     -1.274143    1.089536    1.729984
  H     -0.699446    2.305833    0.572976
  H     -2.567378    2.740072   -1.439212
  H     -1.106263    1.829027   -1.819819
  H     -2.714222    1.208614   -2.318697
  C     -3.604951   -0.479990    1.334305
  H     -4.518516    0.081609    1.569999
  H     -3.875155   -1.539602    1.326917
  H     -2.899631   -0.312949    2.150958
  C     -1.154469   -2.008100    0.623895
  H     -2.018836   -2.669635    0.688345
  H     -0.266851   -2.620470    0.407158
  H     -0.972752   -1.509355    1.576239
  C     -1.674165   -1.602617   -1.849852
  H     -0.822085   -2.203352   -2.197321
  H     -2.550086   -2.249589   -1.768226
  H     -1.842328   -0.819495   -2.589815

ORBITAL ENERGIES
----------------
                 SPIN UP ORBITALS
  NO   OCC          E(Eh)            E(eV)
   0   1.0000    -261.559548     -7117.3972
   1   1.0000    -104.781930     -2851.2613
   2   1.0000    -104.780401     -2851.2197
   3   1.0000    -104.780307     -2851.2171
   4   1.0000     -32.227402      -876.9522
   5   1.0000     -27.703547      -753.8518
   6   1.0000     -27.702939      -753.8353
   7   1.0000     -27.702783      -753.8311
   8   1.0000     -20.571317      -559.7740
   9   1.0000     -11.407985      -310.4270
  10   1.0000     -11.327888      -308.2475
  11   1.0000     -11.267382      -306.6010
  12   1.0000     -11.265378      -306.5465
  13   1.0000     -11.260355      -306.4098
  14   1.0000     -11.257666      -306.3367
  15   1.0000     -11.256306      -306.2997
  16   1.0000     -11.252209      -306.1882
  17   1.0000     -10.508563      -285.9525
  18   1.0000     -10.506980      -285.9095
  19   1.0000     -10.506858      -285.9062
  20   1.0000      -7.975436      -217.0226
  21   1.0000      -7.974620      -217.0004
  22   1.0000      -7.974577      -216.9993
  23   1.0000      -7.973836      -216.9791
  24   1.0000      -7.973663      -216.9744
  25   1.0000      -7.973079      -216.9585
  26   1.0000      -7.972993      -216.9562
  27   1.0000      -7.972971      -216.9556
  28   1.0000      -7.972890      -216.9534
  29   1.0000      -4.582727      -124.7023
  30   1.0000      -3.195620       -86.9572
  31   1.0000      -3.194552       -86.9282
  32   1.0000      -3.194151       -86.9173
  33   1.0000      -1.423867       -38.7454
  34   1.0000      -1.160041       -31.5663
  35   1.0000      -1.090687       -29.6791
  36   1.0000      -1.054247       -28.6875
  37   1.0000      -1.048844       -28.5405
  38   1.0000      -1.047065       -28.4921
  39   1.0000      -1.036308       -28.1994
  40   1.0000      -1.000287       -27.2192
  41   1.0000      -0.981933       -26.7198
  42   1.0000      -0.931205       -25.3394
  43   1.0000      -0.918607       -24.9966
  44   1.0000      -0.912227       -24.8230
  45   1.0000      -0.912103       -24.8196
  46   1.0000      -0.902514       -24.5587
  47   1.0000      -0.902214       -24.5505
  48   1.0000      -0.794112       -21.6089
  49   1.0000      -0.753927       -20.5154
  50   1.0000      -0.697459       -18.9788
  51   1.0000      -0.691397       -18.8139
  52   1.0000      -0.683921       -18.6104
  53   1.0000      -0.666821       -18.1451
  54   1.0000      -0.640893       -17.4396
  55   1.0000      -0.620550       -16.8860
  56   1.0000      -0.602371       -16.3914
  57   1.0000      -0.597248       -16.2519
  58   1.0000      -0.583298       -15.8723
  59   1.0000      -0.574955       -15.6453
  60   1.0000      -0.574076       -15.6214
  61   1.0000      -0.566844       -15.4246
  62   1.0000      -0.551963       -15.0197
  63   1.0000      -0.549089       -14.9415
  64   1.0000      -0.543501       -14.7894
  65   1.0000      -0.520143       -14.1538
  66   1.0000      -0.517093       -14.0708
  67   1.0000      -0.486290       -13.2326
  68   1.0000      -0.468509       -12.7488
  69   1.0000      -0.459772       -12.5110
  70   1.0000      -0.436032       -11.8650
  71   1.0000      -0.430878       -11.7248
  72   1.0000      -0.429243       -11.6803
  73   1.0000      -0.421286       -11.4638
  74   1.0000      -0.419402       -11.4125
  75   1.0000      -0.418940       -11.3999
  76   1.0000      -0.374752       -10.1975
  77   0.0000       0.010963         0.2983
  78   0.0000       0.021482         0.5845
  79   0.0000       0.022774         0.6197
  80   0.0000       0.030256         0.8233
  81   0.0000       0.038797         1.0557

                 SPIN DOWN ORBITALS
  NO   OCC          E(Eh)            E(eV)
   0   1.0000    -261.555996     -7117.3005
   1   1.0000    -104.780509     -2851.2226
   2   1.0000    -104.778940     -2851.1799
   3   1.0000    -104.778887     -2851.1785
   4   1.0000     -32.065365      -872.5429
   5   1.0000     -27.543342      -749.4924
   6   1.0000     -27.543257      -749.4901
   7   1.0000     -27.542923      -749.4811
   8   1.0000     -20.566664      -559.6474
   9   1.0000     -11.407883      -310.4243
  10   1.0000     -11.327876      -308.2472
  11   1.0000     -11.267094      -306.5932
  12   1.0000     -11.265279      -306.5438
  13   1.0000     -11.260328      -306.4091
  14   1.0000     -11.257658      -306.3365
  15   1.0000     -11.256337      -306.3005
  16   1.0000     -11.252232      -306.1888
  17   1.0000     -10.507039      -285.9111
  18   1.0000     -10.505416      -285.8669
  19   1.0000     -10.505343      -285.8649
  20   1.0000      -7.972934      -216.9546
  21   1.0000      -7.972328      -216.9381
  22   1.0000      -7.972257      -216.9361
  23   1.0000      -7.971325      -216.9108
  24   1.0000      -7.971322      -216.9107
  25   1.0000      -7.970672      -216.8930
  26   1.0000      -7.970581      -216.8905
  27   1.0000      -7.970580      -216.8905
  28   1.0000      -7.970489      -216.8880
  29   1.0000      -4.140463      -112.6677
  30   1.0000      -2.662141       -72.4405
  31   1.0000      -2.662078       -72.4388
  32   1.0000      -2.661591       -72.4256
  33   1.0000      -1.412040       -38.4236
  34   1.0000      -1.159106       -31.5409
  35   1.0000      -1.087995       -29.6058
  36   1.0000      -1.039484       -28.2858
  37   1.0000      -1.035753       -28.1843
  38   1.0000      -1.027617       -27.9629
  39   1.0000      -1.026341       -27.9282
  40   1.0000      -0.999494       -27.1976
  41   1.0000      -0.981841       -26.7173
  42   1.0000      -0.921820       -25.0840
  43   1.0000      -0.808135       -21.9905
  44   1.0000      -0.754052       -20.5188
  45   1.0000      -0.697592       -18.9824
  46   1.0000      -0.693690       -18.8763
  47   1.0000      -0.683210       -18.5911
  48   1.0000      -0.666155       -18.1270
  49   1.0000      -0.640820       -17.4376
  50   1.0000      -0.620401       -16.8820
  51   1.0000      -0.601593       -16.3702
  52   1.0000      -0.597176       -16.2500
  53   1.0000      -0.583127       -15.8677
  54   1.0000      -0.574658       -15.6372
  55   1.0000      -0.573948       -15.6179
  56   1.0000      -0.566552       -15.4167
  57   1.0000      -0.551645       -15.0110
  58   1.0000      -0.548476       -14.9248
  59   1.0000      -0.539215       -14.6728
  60   1.0000      -0.519405       -14.1337
  61   1.0000      -0.510107       -13.8807
  62   1.0000      -0.483765       -13.1639
  63   1.0000      -0.472704       -12.8629
  64   1.0000      -0.470515       -12.8034
  65   1.0000      -0.443319       -12.0633
  66   1.0000      -0.440421       -11.9845
  67   1.0000      -0.438465       -11.9312
  68   1.0000      -0.425075       -11.5669
  69   1.0000      -0.418703       -11.3935
  70   1.0000      -0.405039       -11.0217
  71   1.0000      -0.372932       -10.1480
  72   0.0000       0.010961         0.2983
  73   0.0000       0.021449         0.5837
  74   0.0000       0.022750         0.6191
  75   0.0000       0.030281         0.8240
  76   0.0000       0.038776         1.0551

E(0)                                       ...  -3028.425701110
E(0)                                       ...  -3028.425701110
E(CORR)(strong-pairs)                      ...     -2.873160197
E(CORR)(weak-pairs)                        ...     -0.035735343
E(CORR)(corrected)                         ...     -2.908895540
E(TOT)                                     ...  -3031.334596650
E(CCSD(T))                                 ...  -3031.454373953
FINAL SINGLE POINT ENERGY     -3031.454373952914

DIPOLE MOMENT
-------------
                                X             Y             Z
Electronic contribution:     42.04532       2.68469       2.24112
Nuclear contribution   :    -46.25824      -3.11103      -2.75723
                        -----------------------------------------
Total Dipole Moment    :     -4.21292      -0.42634      -0.51610
                        -----------------------------------------
Magnitude (a.u.)       :      4.26577
Magnitude (Debye)      :     10.84273

Rotational constants in cm-1:     0.019482     0.011227     0.010500
Rotational constants in MHz :   584.051267   336.584039   314.794126

                             ****ORCA TERMINATED NORMALLY****
TOTAL RUN TIME: 0 days 20 hours 41 minutes 13 seconds 994 msec
