                         Program Version 4.1.2  - RELEASE  -
|  1> ! aug-cc-pVTZ aug-cc-pVTZ/C DLPNO-CCSD(T1) TightSCF NormalPNO UNO MiniPrint AutoAux
|  2> %pal nproc 10 end
|  3> %maxcore 20000
|  4> %mdci
|  5>      density none
|  6> end
|  7>
|  8> * xyz 0 6
|  9>  O     -0.30506900     -0.16146700     -0.69028000
| 10>  C     -1.17053500     -1.09152100     -0.59309800
| 11>  C     -3.13101500     -0.03254600      0.15361800
| 12>  C     -2.37897700      1.04410400     -0.19231500
| 13>  C     -2.40417800      1.61263200     -1.57823100
| 14> Fe      1.46007300      0.08422300      0.04809100
| 15> Cl      2.09220700      2.00249800     -0.78578400
| 16>  C     -1.56255700      1.82508500      0.79123100
| 17> Cl      2.50353800     -1.69966600     -0.69178700
| 18> Cl      1.30880400      0.08374000      2.24492000
| 19>  H     -3.77834900     -0.45144400     -0.61436800
| 20>  H     -2.17461500      2.65960000      1.16224000
| 21>  H     -1.23852300      1.24318300      1.65435900
| 22>  H     -0.68137700      2.26283000      0.31377500
| 23>  H     -2.70229600      2.66757900     -1.52335100
| 24>  H     -1.39917300      1.59321000     -2.01532900
| 25>  H     -3.10681500      1.09706900     -2.23759600
| 26>  C     -3.44436900     -0.46743000      1.56072100
| 27>  H     -4.35153900      0.04601300      1.90690500
| 28>  H     -3.64803800     -1.54069900      1.61965700
| 29>  H     -2.64822000     -0.23117700      2.27045100
| 30>  C     -1.07487300     -2.05900700      0.55065100
| 31>  H     -1.95624500     -2.69408300      0.63940700
| 32>  H     -0.21034800     -2.69844700      0.31646900
| 33>  H     -0.85694700     -1.55801500      1.49395100
| 34>  C     -1.75969500     -1.60165300     -1.88080600
| 35>  H     -0.98536600     -2.25067200     -2.31499300
| 36>  H     -2.66027000     -2.19765800     -1.72570500
| 37>  H     -1.94336900     -0.79506600     -2.58957600
| 38> *
| 39>
| 40>
| 41>                          ****END OF INPUT****

CARTESIAN COORDINATES (ANGSTROEM)
---------------------------------
  O     -0.305069   -0.161467   -0.690280
  C     -1.170535   -1.091521   -0.593098
  C     -3.131015   -0.032546    0.153618
  C     -2.378977    1.044104   -0.192315
  C     -2.404178    1.612632   -1.578231
  Fe     1.460073    0.084223    0.048091
  Cl     2.092207    2.002498   -0.785784
  C     -1.562557    1.825085    0.791231
  Cl     2.503538   -1.699666   -0.691787
  Cl     1.308804    0.083740    2.244920
  H     -3.778349   -0.451444   -0.614368
  H     -2.174615    2.659600    1.162240
  H     -1.238523    1.243183    1.654359
  H     -0.681377    2.262830    0.313775
  H     -2.702296    2.667579   -1.523351
  H     -1.399173    1.593210   -2.015329
  H     -3.106815    1.097069   -2.237596
  C     -3.444369   -0.467430    1.560721
  H     -4.351539    0.046013    1.906905
  H     -3.648038   -1.540699    1.619657
  H     -2.648220   -0.231177    2.270451
  C     -1.074873   -2.059007    0.550651
  H     -1.956245   -2.694083    0.639407
  H     -0.210348   -2.698447    0.316469
  H     -0.856947   -1.558015    1.493951
  C     -1.759695   -1.601653   -1.880806
  H     -0.985366   -2.250672   -2.314993
  H     -2.660270   -2.197658   -1.725705
  H     -1.943369   -0.795066   -2.589576

ORBITAL ENERGIES
----------------
                 SPIN UP ORBITALS
  NO   OCC          E(Eh)            E(eV)
   0   1.0000    -261.568101     -7117.6299
   1   1.0000    -104.787761     -2851.4199
   2   1.0000    -104.785590     -2851.3609
   3   1.0000    -104.784637     -2851.3349
   4   1.0000     -32.235878      -877.1828
   5   1.0000     -27.712201      -754.0873
   6   1.0000     -27.711309      -754.0631
   7   1.0000     -27.711159      -754.0590
   8   1.0000     -20.594049      -560.3926
   9   1.0000     -11.418517      -310.7137
  10   1.0000     -11.294557      -307.3405
  11   1.0000     -11.272733      -306.7467
  12   1.0000     -11.267125      -306.5941
  13   1.0000     -11.255265      -306.2713
  14   1.0000     -11.248999      -306.1008
  15   1.0000     -11.248608      -306.0902
  16   1.0000     -11.240396      -305.8667
  17   1.0000     -10.514433      -286.1123
  18   1.0000     -10.512218      -286.0520
  19   1.0000     -10.511227      -286.0250
  20   1.0000      -7.981286      -217.1818
  21   1.0000      -7.980498      -217.1604
  22   1.0000      -7.980458      -217.1593
  23   1.0000      -7.979096      -217.1222
  24   1.0000      -7.978315      -217.1010
  25   1.0000      -7.978233      -217.0988
  26   1.0000      -7.978024      -217.0931
  27   1.0000      -7.977347      -217.0746
  28   1.0000      -7.977283      -217.0729
  29   1.0000      -4.590984      -124.9270
  30   1.0000      -3.204029       -87.1861
  31   1.0000      -3.202573       -87.1464
  32   1.0000      -3.202328       -87.1398
  33   1.0000      -1.445628       -39.3375
  34   1.0000      -1.143948       -31.1284
  35   1.0000      -1.095981       -29.8231
  36   1.0000      -1.060500       -28.8577
  37   1.0000      -1.055059       -28.7096
  38   1.0000      -1.052833       -28.6490
  39   1.0000      -1.029110       -28.0035
  40   1.0000      -1.007178       -27.4067
  41   1.0000      -0.970230       -26.4013
  42   1.0000      -0.936635       -25.4871
  43   1.0000      -0.920208       -25.0401
  44   1.0000      -0.920066       -25.0363
  45   1.0000      -0.910249       -24.7691
  46   1.0000      -0.909691       -24.7540
  47   1.0000      -0.908913       -24.7328
  48   1.0000      -0.804157       -21.8822
  49   1.0000      -0.742123       -20.1942
  50   1.0000      -0.702050       -19.1038
  51   1.0000      -0.696128       -18.9426
  52   1.0000      -0.688551       -18.7364
  53   1.0000      -0.665048       -18.0969
  54   1.0000      -0.632567       -17.2130
  55   1.0000      -0.620091       -16.8735
  56   1.0000      -0.603457       -16.4209
  57   1.0000      -0.599988       -16.3265
  58   1.0000      -0.583425       -15.8758
  59   1.0000      -0.577540       -15.7157
  60   1.0000      -0.564745       -15.3675
  61   1.0000      -0.561638       -15.2829
  62   1.0000      -0.551746       -15.0138
  63   1.0000      -0.546438       -14.8693
  64   1.0000      -0.537669       -14.6307
  65   1.0000      -0.525886       -14.3101
  66   1.0000      -0.506376       -13.7792
  67   1.0000      -0.494358       -13.4522
  68   1.0000      -0.473098       -12.8737
  69   1.0000      -0.468284       -12.7427
  70   1.0000      -0.441256       -12.0072
  71   1.0000      -0.435635       -11.8542
  72   1.0000      -0.434220       -11.8157
  73   1.0000      -0.425687       -11.5835
  74   1.0000      -0.424069       -11.5395
  75   1.0000      -0.423758       -11.5310
  76   1.0000      -0.366941        -9.9850
  77   0.0000       0.012196         0.3319
  78   0.0000       0.022909         0.6234
  79   0.0000       0.023322         0.6346
  80   0.0000       0.030343         0.8257
  81   0.0000       0.039216         1.0671

                 SPIN DOWN ORBITALS
  NO   OCC          E(Eh)            E(eV)
   0   1.0000    -261.564538     -7117.5329
   1   1.0000    -104.786302     -2851.3802
   2   1.0000    -104.784086     -2851.3199
   3   1.0000    -104.783145     -2851.2943
   4   1.0000     -32.073858      -872.7740
   5   1.0000     -27.551787      -749.7222
   6   1.0000     -27.551737      -749.7209
   7   1.0000     -27.551511      -749.7147
   8   1.0000     -20.590085      -560.2847
   9   1.0000     -11.418370      -310.7097
  10   1.0000     -11.294572      -307.3409
  11   1.0000     -11.272629      -306.7438
  12   1.0000     -11.267114      -306.5938
  13   1.0000     -11.255098      -306.2668
  14   1.0000     -11.249017      -306.1013
  15   1.0000     -11.248600      -306.0900
  16   1.0000     -11.240416      -305.8673
  17   1.0000     -10.512871      -286.0698
  18   1.0000     -10.510610      -286.0082
  19   1.0000     -10.509638      -285.9818
  20   1.0000      -7.978774      -217.1135
  21   1.0000      -7.978106      -217.0953
  22   1.0000      -7.978047      -217.0937
  23   1.0000      -7.976494      -217.0514
  24   1.0000      -7.975848      -217.0339
  25   1.0000      -7.975750      -217.0312
  26   1.0000      -7.975623      -217.0277
  27   1.0000      -7.974803      -217.0054
  28   1.0000      -7.974718      -217.0031
  29   1.0000      -4.148760      -112.8935
  30   1.0000      -2.670358       -72.6641
  31   1.0000      -2.670318       -72.6631
  32   1.0000      -2.669844       -72.6502
  33   1.0000      -1.435618       -39.0652
  34   1.0000      -1.143400       -31.1135
  35   1.0000      -1.093415       -29.7533
  36   1.0000      -1.045347       -28.4453
  37   1.0000      -1.033109       -28.1123
  38   1.0000      -1.031222       -28.0610
  39   1.0000      -1.028636       -27.9906
  40   1.0000      -1.006357       -27.3844
  41   1.0000      -0.970124       -26.3984
  42   1.0000      -0.910150       -24.7664
  43   1.0000      -0.817846       -22.2547
  44   1.0000      -0.742166       -20.1954
  45   1.0000      -0.704931       -19.1821
  46   1.0000      -0.695847       -18.9350
  47   1.0000      -0.687012       -18.6945
  48   1.0000      -0.664947       -18.0941
  49   1.0000      -0.632476       -17.2105
  50   1.0000      -0.619676       -16.8622
  51   1.0000      -0.603117       -16.4117
  52   1.0000      -0.599931       -16.3250
  53   1.0000      -0.583061       -15.8659
  54   1.0000      -0.577066       -15.7028
  55   1.0000      -0.564454       -15.3596
  56   1.0000      -0.561468       -15.2783
  57   1.0000      -0.549199       -14.9445
  58   1.0000      -0.545976       -14.8568
  59   1.0000      -0.536759       -14.6059
  60   1.0000      -0.516288       -14.0489
  61   1.0000      -0.506357       -13.7787
  62   1.0000      -0.493899       -13.4397
  63   1.0000      -0.478756       -13.0276
  64   1.0000      -0.477616       -12.9966
  65   1.0000      -0.448719       -12.2103
  66   1.0000      -0.445597       -12.1253
  67   1.0000      -0.443327       -12.0635
  68   1.0000      -0.427975       -11.6458
  69   1.0000      -0.424269       -11.5450
  70   1.0000      -0.409184       -11.1345
  71   1.0000      -0.365665        -9.9503
  72   0.0000       0.012186         0.3316
  73   0.0000       0.022883         0.6227
  74   0.0000       0.023299         0.6340
  75   0.0000       0.030332         0.8254
  76   0.0000       0.039149         1.0653

E(0)                                       ...  -3028.440897437
E(0)                                       ...  -3028.440897437
E(CORR)(strong-pairs)                      ...     -2.871240590
E(CORR)(weak-pairs)                        ...     -0.036411643
E(CORR)(corrected)                         ...     -2.907652233
E(TOT)                                     ...  -3031.348549669
E(CCSD(T))                                 ...  -3031.467587619
FINAL SINGLE POINT ENERGY     -3031.467587619166

DIPOLE MOMENT
-------------
                                X             Y             Z
Electronic contribution:     42.80624       2.75146       2.24372
Nuclear contribution   :    -46.61550      -3.58974      -2.82931
                        -----------------------------------------
Total Dipole Moment    :     -3.80926      -0.83828      -0.58558
                        -----------------------------------------
Magnitude (a.u.)       :      3.94412
Magnitude (Debye)      :     10.02515

Rotational constants in cm-1:     0.019325     0.011017     0.010372
Rotational constants in MHz :   579.360888   330.284431   310.933287

                             ****ORCA TERMINATED NORMALLY****
TOTAL RUN TIME: 0 days 18 hours 45 minutes 41 seconds 985 msec
