                         Program Version 4.1.2  - RELEASE  -
|  1> ! aug-cc-pVTZ aug-cc-pVTZ/C DLPNO-CCSD(T1) TightSCF NormalPNO UNO MiniPrint AutoAux
|  2> %pal nproc 10 end
|  3> %maxcore 20000
|  4> %mdci
|  5>      density none
|  6> end
|  7>
|  8> * xyz 0 6
|  9>  O     -0.29518500     -0.18542900     -0.72202600
| 10>  C     -1.14835600     -1.11939900     -0.61124200
| 11>  C     -3.13164200     -0.03933400      0.20118400
| 12>  C     -2.40930100      1.03889400     -0.19139800
| 13>  C     -2.48195200      1.57235800     -1.59058000
| 14> Fe      1.46168000      0.09279200      0.04605600
| 15> Cl      2.09724400      2.00069800     -0.80332500
| 16>  C     -1.56722000      1.85275800      0.74313300
| 17> Cl      2.52713300     -1.69157800     -0.65714800
| 18> Cl      1.27932000      0.11578700      2.23907900
| 19>  H     -3.79456600     -0.48785700     -0.53658300
| 20>  H     -2.15616100      2.71771200      1.07990800
| 21>  H     -1.24036600      1.30846400      1.62919500
| 22>  H     -0.68538500      2.25109600      0.23235900
| 23>  H     -2.78021600      2.62804300     -1.55738300
| 24>  H     -1.49168100      1.54225600     -2.06070700
| 25>  H     -3.20365100      1.03716000     -2.21297200
| 26>  C     -3.37962100     -0.46111500      1.62514500
| 27>  H     -4.27849700      0.04311900      2.00496900
| 28>  H     -3.56496800     -1.53645200      1.70484100
| 29>  H     -2.55721300     -0.20593300      2.29764300
| 30>  C     -1.04472300     -2.08086500      0.53552200
| 31>  H     -1.92891100     -2.71026700      0.63590700
| 32>  H     -0.18585800     -2.72629200      0.29658900
| 33>  H     -0.81563000     -1.57587000      1.47399100
| 34>  C     -1.77809600     -1.62017800     -1.88196400
| 35>  H     -1.02711700     -2.28435000     -2.33426300
| 36>  H     -2.68411400     -2.20072000     -1.70287600
| 37>  H     -1.96523200     -0.81139200     -2.58694400
| 38> *
| 39>
| 40>
| 41>                          ****END OF INPUT****

CARTESIAN COORDINATES (ANGSTROEM)
---------------------------------
  O     -0.295185   -0.185429   -0.722026
  C     -1.148356   -1.119399   -0.611242
  C     -3.131642   -0.039334    0.201184
  C     -2.409301    1.038894   -0.191398
  C     -2.481952    1.572358   -1.590580
  Fe     1.461680    0.092792    0.046056
  Cl     2.097244    2.000698   -0.803325
  C     -1.567220    1.852758    0.743133
  Cl     2.527133   -1.691578   -0.657148
  Cl     1.279320    0.115787    2.239079
  H     -3.794566   -0.487857   -0.536583
  H     -2.156161    2.717712    1.079908
  H     -1.240366    1.308464    1.629195
  H     -0.685385    2.251096    0.232359
  H     -2.780216    2.628043   -1.557383
  H     -1.491681    1.542256   -2.060707
  H     -3.203651    1.037160   -2.212972
  C     -3.379621   -0.461115    1.625145
  H     -4.278497    0.043119    2.004969
  H     -3.564968   -1.536452    1.704841
  H     -2.557213   -0.205933    2.297643
  C     -1.044723   -2.080865    0.535522
  H     -1.928911   -2.710267    0.635907
  H     -0.185858   -2.726292    0.296589
  H     -0.815630   -1.575870    1.473991
  C     -1.778096   -1.620178   -1.881964
  H     -1.027117   -2.284350   -2.334263
  H     -2.684114   -2.200720   -1.702876
  H     -1.965232   -0.811392   -2.586944

ORBITAL ENERGIES
----------------
                 SPIN UP ORBITALS
  NO   OCC          E(Eh)            E(eV)
   0   1.0000    -261.569921     -7117.6794
   1   1.0000    -104.789066     -2851.4555
   2   1.0000    -104.786666     -2851.3901
   3   1.0000    -104.785619     -2851.3617
   4   1.0000     -32.237679      -877.2318
   5   1.0000     -27.714036      -754.1373
   6   1.0000     -27.713091      -754.1115
   7   1.0000     -27.712935      -754.1073
   8   1.0000     -20.599357      -560.5370
   9   1.0000     -11.419725      -310.7465
  10   1.0000     -11.288348      -307.1716
  11   1.0000     -11.273950      -306.7798
  12   1.0000     -11.268198      -306.6233
  13   1.0000     -11.252573      -306.1981
  14   1.0000     -11.247099      -306.0491
  15   1.0000     -11.247093      -306.0489
  16   1.0000     -11.237995      -305.8014
  17   1.0000     -10.515746      -286.1480
  18   1.0000     -10.513306      -286.0816
  19   1.0000     -10.512217      -286.0520
  20   1.0000      -7.982594      -217.2174
  21   1.0000      -7.981814      -217.1962
  22   1.0000      -7.981772      -217.1951
  23   1.0000      -7.980188      -217.1519
  24   1.0000      -7.979402      -217.1306
  25   1.0000      -7.979324      -217.1284
  26   1.0000      -7.979012      -217.1200
  27   1.0000      -7.978338      -217.1016
  28   1.0000      -7.978278      -217.1000
  29   1.0000      -4.592727      -124.9744
  30   1.0000      -3.205791       -87.2340
  31   1.0000      -3.204270       -87.1926
  32   1.0000      -3.204055       -87.1868
  33   1.0000      -1.449721       -39.4489
  34   1.0000      -1.140361       -31.0308
  35   1.0000      -1.097114       -29.8540
  36   1.0000      -1.061890       -28.8955
  37   1.0000      -1.056401       -28.7461
  38   1.0000      -1.054087       -28.6832
  39   1.0000      -1.027439       -27.9580
  40   1.0000      -1.008267       -27.4363
  41   1.0000      -0.967738       -26.3335
  42   1.0000      -0.938005       -25.5244
  43   1.0000      -0.921869       -25.0853
  44   1.0000      -0.921735       -25.0817
  45   1.0000      -0.911326       -24.7984
  46   1.0000      -0.911134       -24.7932
  47   1.0000      -0.906938       -24.6790
  48   1.0000      -0.806247       -21.9391
  49   1.0000      -0.739509       -20.1231
  50   1.0000      -0.704178       -19.1617
  51   1.0000      -0.697022       -18.9669
  52   1.0000      -0.688658       -18.7393
  53   1.0000      -0.663407       -18.0522
  54   1.0000      -0.630417       -17.1545
  55   1.0000      -0.620396       -16.8818
  56   1.0000      -0.603510       -16.4223
  57   1.0000      -0.600205       -16.3324
  58   1.0000      -0.583967       -15.8905
  59   1.0000      -0.577915       -15.7259
  60   1.0000      -0.562917       -15.3177
  61   1.0000      -0.559661       -15.2291
  62   1.0000      -0.552476       -15.0336
  63   1.0000      -0.545215       -14.8361
  64   1.0000      -0.535910       -14.5828
  65   1.0000      -0.527539       -14.3551
  66   1.0000      -0.503587       -13.7033
  67   1.0000      -0.496199       -13.5023
  68   1.0000      -0.474014       -12.8986
  69   1.0000      -0.470114       -12.7924
  70   1.0000      -0.442408       -12.0385
  71   1.0000      -0.436681       -11.8827
  72   1.0000      -0.435275       -11.8444
  73   1.0000      -0.426672       -11.6103
  74   1.0000      -0.425132       -11.5684
  75   1.0000      -0.424747       -11.5580
  76   1.0000      -0.365410        -9.9433
  77   0.0000       0.012387         0.3371
  78   0.0000       0.023130         0.6294
  79   0.0000       0.023476         0.6388
  80   0.0000       0.030382         0.8267
  81   0.0000       0.039231         1.0675

                 SPIN DOWN ORBITALS
  NO   OCC          E(Eh)            E(eV)
   0   1.0000    -261.566355     -7117.5824
   1   1.0000    -104.787600     -2851.4156
   2   1.0000    -104.785151     -2851.3489
   3   1.0000    -104.784113     -2851.3207
   4   1.0000     -32.075664      -872.8232
   5   1.0000     -27.553588      -749.7713
   6   1.0000     -27.553537      -749.7699
   7   1.0000     -27.553336      -749.7644
   8   1.0000     -20.595512      -560.4324
   9   1.0000     -11.419585      -310.7427
  10   1.0000     -11.288372      -307.1722
  11   1.0000     -11.273845      -306.7769
  12   1.0000     -11.268190      -306.6230
  13   1.0000     -11.252430      -306.1942
  14   1.0000     -11.247113      -306.0495
  15   1.0000     -11.247085      -306.0487
  16   1.0000     -11.238012      -305.8019
  17   1.0000     -10.514178      -286.1053
  18   1.0000     -10.511687      -286.0375
  19   1.0000     -10.510614      -286.0083
  20   1.0000      -7.980083      -217.1491
  21   1.0000      -7.979401      -217.1305
  22   1.0000      -7.979345      -217.1290
  23   1.0000      -7.977566      -217.0806
  24   1.0000      -7.976918      -217.0630
  25   1.0000      -7.976820      -217.0603
  26   1.0000      -7.976600      -217.0543
  27   1.0000      -7.975763      -217.0316
  28   1.0000      -7.975679      -217.0293
  29   1.0000      -4.150524      -112.9415
  30   1.0000      -2.672110       -72.7118
  31   1.0000      -2.672073       -72.7108
  32   1.0000      -2.671593       -72.6978
  33   1.0000      -1.440053       -39.1858
  34   1.0000      -1.139888       -31.0179
  35   1.0000      -1.094592       -29.7854
  36   1.0000      -1.046647       -28.4807
  37   1.0000      -1.034324       -28.1454
  38   1.0000      -1.032210       -28.0879
  39   1.0000      -1.027009       -27.9463
  40   1.0000      -1.007457       -27.4143
  41   1.0000      -0.967622       -26.3303
  42   1.0000      -0.907456       -24.6931
  43   1.0000      -0.819705       -22.3053
  44   1.0000      -0.739557       -20.1244
  45   1.0000      -0.706961       -19.2374
  46   1.0000      -0.696475       -18.9520
  47   1.0000      -0.687373       -18.7044
  48   1.0000      -0.663323       -18.0499
  49   1.0000      -0.630322       -17.1519
  50   1.0000      -0.619945       -16.8695
  51   1.0000      -0.603207       -16.4141
  52   1.0000      -0.600152       -16.3310
  53   1.0000      -0.583619       -15.8811
  54   1.0000      -0.577367       -15.7110
  55   1.0000      -0.562539       -15.3075
  56   1.0000      -0.559495       -15.2246
  57   1.0000      -0.549788       -14.9605
  58   1.0000      -0.545044       -14.8314
  59   1.0000      -0.534893       -14.5552
  60   1.0000      -0.517719       -14.0879
  61   1.0000      -0.503570       -13.7028
  62   1.0000      -0.496233       -13.5032
  63   1.0000      -0.480245       -13.0681
  64   1.0000      -0.478847       -13.0301
  65   1.0000      -0.449876       -12.2417
  66   1.0000      -0.446738       -12.1564
  67   1.0000      -0.444358       -12.0916
  68   1.0000      -0.428654       -11.6643
  69   1.0000      -0.425455       -11.5772
  70   1.0000      -0.410096       -11.1593
  71   1.0000      -0.364267        -9.9122
  72   0.0000       0.012375         0.3367
  73   0.0000       0.023103         0.6287
  74   0.0000       0.023454         0.6382
  75   0.0000       0.030358         0.8261
  76   0.0000       0.039144         1.0652

E(0)                                       ...  -3028.445245467
E(0)                                       ...  -3028.445245467
E(CORR)(strong-pairs)                      ...     -2.870873099
E(CORR)(weak-pairs)                        ...     -0.036173932
E(CORR)(corrected)                         ...     -2.907047031
E(TOT)                                     ...  -3031.352292498
E(CCSD(T))                                 ...  -3031.471172120
FINAL SINGLE POINT ENERGY     -3031.471172119872

DIPOLE MOMENT
-------------
                                X             Y             Z
Electronic contribution:     42.92305       2.89965       2.22767
Nuclear contribution   :    -46.63752      -3.83208      -2.83070
                        -----------------------------------------
Total Dipole Moment    :     -3.71447      -0.93243      -0.60303
                        -----------------------------------------
Magnitude (a.u.)       :      3.87690
Magnitude (Debye)      :      9.85429

Rotational constants in cm-1:     0.019245     0.010983     0.010343
Rotational constants in MHz :   576.953504   329.259172   310.080627

                             ****ORCA TERMINATED NORMALLY****
TOTAL RUN TIME: 0 days 18 hours 58 minutes 20 seconds 768 msec
