                         Program Version 4.1.2  - RELEASE  -
|  1> ! aug-cc-pVTZ aug-cc-pVTZ/C DLPNO-CCSD(T1) TightSCF NormalPNO UNO MiniPrint AutoAux
|  2> %pal nproc 10 end
|  3> %maxcore 20000
|  4> %mdci
|  5>      density none
|  6> end
|  7>
|  8> * xyz 0 6
|  9>  O     -0.29427300     -0.12205700     -0.41988400
| 10>  C     -1.20457500     -1.05112800     -0.17299100
| 11>  C     -2.55196800     -0.27632200      0.83035900
| 12>  C     -3.12030700      0.64788500     -0.06892500
| 13>  C     -4.29338800      0.30562800     -0.91487400
| 14> Fe      1.54157300      0.16856600     -0.10334700
| 15> Cl      1.89399500      2.13055100     -1.02705800
| 16>  C     -2.44035000      1.93622000     -0.29365800
| 17> Cl      2.52756300     -1.54936500     -1.06327300
| 18> Cl      1.86779900      0.20049500      2.08246000
| 19>  H     -3.18901500     -1.14404400      1.00796200
| 20>  H     -2.93601800      2.57346700     -1.02784500
| 21>  H     -2.27336200      2.48729300      0.63821600
| 22>  H     -1.41970600      1.66988300     -0.64725000
| 23>  H     -5.12361300      0.96588100     -0.62127600
| 24>  H     -4.09649300      0.52352600     -1.97203800
| 25>  H     -4.61851200     -0.72982200     -0.80097900
| 26>  C     -1.87264600      0.26822800      2.08606000
| 27>  H     -2.52647000      0.98949000      2.58769200
| 28>  H     -1.66902800     -0.53842800      2.79111800
| 29>  H     -0.92412000      0.75682600      1.85757300
| 30>  C     -0.73958400     -2.15865200      0.77815400
| 31>  H     -1.55479200     -2.82706400      1.06726500
| 32>  H      0.00991900     -2.73706100      0.22502700
| 33>  H     -0.25079100     -1.75458800      1.66444400
| 34>  C     -1.81864100     -1.61284100     -1.45228300
| 35>  H     -1.05006100     -2.22554500     -1.93536500
| 36>  H     -2.69077600     -2.24400700     -1.25697900
| 37>  H     -2.08419500     -0.81475300     -2.14871300
| 38> *
| 39>
| 40>
| 41>                          ****END OF INPUT****

CARTESIAN COORDINATES (ANGSTROEM)
---------------------------------
  O     -0.294273   -0.122057   -0.419884
  C     -1.204575   -1.051128   -0.172991
  C     -2.551968   -0.276322    0.830359
  C     -3.120307    0.647885   -0.068925
  C     -4.293388    0.305628   -0.914874
  Fe     1.541573    0.168566   -0.103347
  Cl     1.893995    2.130551   -1.027058
  C     -2.440350    1.936220   -0.293658
  Cl     2.527563   -1.549365   -1.063273
  Cl     1.867799    0.200495    2.082460
  H     -3.189015   -1.144044    1.007962
  H     -2.936018    2.573467   -1.027845
  H     -2.273362    2.487293    0.638216
  H     -1.419706    1.669883   -0.647250
  H     -5.123613    0.965881   -0.621276
  H     -4.096493    0.523526   -1.972038
  H     -4.618512   -0.729822   -0.800979
  C     -1.872646    0.268228    2.086060
  H     -2.526470    0.989490    2.587692
  H     -1.669028   -0.538428    2.791118
  H     -0.924120    0.756826    1.857573
  C     -0.739584   -2.158652    0.778154
  H     -1.554792   -2.827064    1.067265
  H      0.009919   -2.737061    0.225027
  H     -0.250791   -1.754588    1.664444
  C     -1.818641   -1.612841   -1.452283
  H     -1.050061   -2.225545   -1.935365
  H     -2.690776   -2.244007   -1.256979
  H     -2.084195   -0.814753   -2.148713

ORBITAL ENERGIES
----------------
                 SPIN UP ORBITALS
  NO   OCC          E(Eh)            E(eV)
   0   1.0000    -261.544142     -7116.9779
   1   1.0000    -104.770022     -2850.9372
   2   1.0000    -104.767832     -2850.8776
   3   1.0000    -104.766971     -2850.8542
   4   1.0000     -32.212039      -876.5341
   5   1.0000     -27.688067      -753.4306
   6   1.0000     -27.687634      -753.4188
   7   1.0000     -27.687475      -753.4145
   8   1.0000     -20.550950      -559.2198
   9   1.0000     -11.379235      -309.6447
  10   1.0000     -11.371302      -309.4289
  11   1.0000     -11.299353      -307.4710
  12   1.0000     -11.285136      -307.0842
  13   1.0000     -11.276010      -306.8358
  14   1.0000     -11.251964      -306.1815
  15   1.0000     -11.251632      -306.1725
  16   1.0000     -11.242609      -305.9270
  17   1.0000     -10.496671      -285.6290
  18   1.0000     -10.494430      -285.5679
  19   1.0000     -10.493602      -285.5454
  20   1.0000      -7.963539      -216.6989
  21   1.0000      -7.962728      -216.6768
  22   1.0000      -7.962681      -216.6756
  23   1.0000      -7.961247      -216.6365
  24   1.0000      -7.960548      -216.6175
  25   1.0000      -7.960466      -216.6153
  26   1.0000      -7.960449      -216.6148
  27   1.0000      -7.959697      -216.5944
  28   1.0000      -7.959613      -216.5921
  29   1.0000      -4.567415      -124.2857
  30   1.0000      -3.180089       -86.5346
  31   1.0000      -3.179399       -86.5158
  32   1.0000      -3.178971       -86.5042
  33   1.0000      -1.386146       -37.7189
  34   1.0000      -1.191932       -32.4341
  35   1.0000      -1.080602       -29.4047
  36   1.0000      -1.046672       -28.4814
  37   1.0000      -1.041234       -28.3334
  38   1.0000      -1.035903       -28.1884
  39   1.0000      -1.033888       -28.1335
  40   1.0000      -1.015907       -27.6442
  41   1.0000      -0.975667       -26.5492
  42   1.0000      -0.929140       -25.2832
  43   1.0000      -0.911115       -24.7927
  44   1.0000      -0.896830       -24.4040
  45   1.0000      -0.896817       -24.4036
  46   1.0000      -0.887817       -24.1587
  47   1.0000      -0.887412       -24.1477
  48   1.0000      -0.793452       -21.5909
  49   1.0000      -0.769353       -20.9352
  50   1.0000      -0.705300       -19.1922
  51   1.0000      -0.692976       -18.8568
  52   1.0000      -0.669858       -18.2278
  53   1.0000      -0.658805       -17.9270
  54   1.0000      -0.652818       -17.7641
  55   1.0000      -0.634423       -17.2635
  56   1.0000      -0.605934       -16.4883
  57   1.0000      -0.600799       -16.3486
  58   1.0000      -0.590697       -16.0737
  59   1.0000      -0.582115       -15.8402
  60   1.0000      -0.578029       -15.7290
  61   1.0000      -0.563222       -15.3260
  62   1.0000      -0.557948       -15.1825
  63   1.0000      -0.540709       -14.7134
  64   1.0000      -0.534620       -14.5478
  65   1.0000      -0.522523       -14.2186
  66   1.0000      -0.505214       -13.7476
  67   1.0000      -0.468036       -12.7359
  68   1.0000      -0.457165       -12.4401
  69   1.0000      -0.444335       -12.0910
  70   1.0000      -0.424631       -11.5548
  71   1.0000      -0.420828       -11.4513
  72   1.0000      -0.416784       -11.3413
  73   1.0000      -0.408783       -11.1236
  74   1.0000      -0.406891       -11.0721
  75   1.0000      -0.406344       -11.0572
  76   1.0000      -0.399953       -10.8833
  77   0.0000       0.002767         0.0753
  78   0.0000       0.003242         0.0882
  79   0.0000       0.017535         0.4772
  80   0.0000       0.018577         0.5055
  81   0.0000       0.027350         0.7442

                 SPIN DOWN ORBITALS
  NO   OCC          E(Eh)            E(eV)
   0   1.0000    -261.540587     -7116.8812
   1   1.0000    -104.768628     -2850.8993
   2   1.0000    -104.766435     -2850.8396
   3   1.0000    -104.765534     -2850.8151
   4   1.0000     -32.049945      -872.1234
   5   1.0000     -27.527971      -749.0742
   6   1.0000     -27.527865      -749.0713
   7   1.0000     -27.527441      -749.0597
   8   1.0000     -20.545877      -559.0817
   9   1.0000     -11.379037      -309.6393
  10   1.0000     -11.371256      -309.4276
  11   1.0000     -11.299381      -307.4718
  12   1.0000     -11.285043      -307.0816
  13   1.0000     -11.276035      -306.8365
  14   1.0000     -11.251860      -306.1787
  15   1.0000     -11.251664      -306.1733
  16   1.0000     -11.242594      -305.9265
  17   1.0000     -10.495174      -285.5882
  18   1.0000     -10.492936      -285.5273
  19   1.0000     -10.492062      -285.5035
  20   1.0000      -7.961074      -216.6318
  21   1.0000      -7.960484      -216.6158
  22   1.0000      -7.960418      -216.6140
  23   1.0000      -7.958913      -216.5730
  24   1.0000      -7.958216      -216.5541
  25   1.0000      -7.958112      -216.5512
  26   1.0000      -7.957979      -216.5476
  27   1.0000      -7.957344      -216.5303
  28   1.0000      -7.957257      -216.5280
  29   1.0000      -4.125078      -112.2491
  30   1.0000      -2.646885       -72.0254
  31   1.0000      -2.646821       -72.0237
  32   1.0000      -2.645985       -72.0009
  33   1.0000      -1.373132       -37.3648
  34   1.0000      -1.190933       -32.4069
  35   1.0000      -1.078098       -29.3365
  36   1.0000      -1.045832       -28.4585
  37   1.0000      -1.026738       -27.9390
  38   1.0000      -1.015852       -27.6427
  39   1.0000      -1.014854       -27.6156
  40   1.0000      -1.013375       -27.5753
  41   1.0000      -0.975048       -26.5324
  42   1.0000      -0.928718       -25.2717
  43   1.0000      -0.802299       -21.8317
  44   1.0000      -0.774300       -21.0698
  45   1.0000      -0.705819       -19.2063
  46   1.0000      -0.692245       -18.8369
  47   1.0000      -0.669902       -18.2290
  48   1.0000      -0.661665       -18.0048
  49   1.0000      -0.651155       -17.7188
  50   1.0000      -0.633916       -17.2497
  51   1.0000      -0.605848       -16.4860
  52   1.0000      -0.600640       -16.3443
  53   1.0000      -0.589937       -16.0530
  54   1.0000      -0.581784       -15.8312
  55   1.0000      -0.577581       -15.7168
  56   1.0000      -0.562846       -15.3158
  57   1.0000      -0.558020       -15.1845
  58   1.0000      -0.539893       -14.6912
  59   1.0000      -0.534375       -14.5411
  60   1.0000      -0.517874       -14.0921
  61   1.0000      -0.497713       -13.5434
  62   1.0000      -0.465766       -12.6741
  63   1.0000      -0.460351       -12.5268
  64   1.0000      -0.453622       -12.3437
  65   1.0000      -0.431349       -11.7376
  66   1.0000      -0.429003       -11.6738
  67   1.0000      -0.426714       -11.6115
  68   1.0000      -0.423095       -11.5130
  69   1.0000      -0.405996       -11.0477
  70   1.0000      -0.392796       -10.6885
  71   1.0000      -0.392329       -10.6758
  72   0.0000       0.002735         0.0744
  73   0.0000       0.003282         0.0893
  74   0.0000       0.017532         0.4771
  75   0.0000       0.018552         0.5048
  76   0.0000       0.027352         0.7443

E(0)                                       ...  -3028.426649227
E(0)                                       ...  -3028.426649227
E(CORR)(strong-pairs)                      ...     -2.874477315
E(CORR)(weak-pairs)                        ...     -0.035284428
E(CORR)(corrected)                         ...     -2.909761742
E(TOT)                                     ...  -3031.336410969
E(CCSD(T))                                 ...  -3031.456675934
FINAL SINGLE POINT ENERGY     -3031.456675933575

DIPOLE MOMENT
-------------
                                X             Y             Z
Electronic contribution:     43.64561       6.25093      -1.78061
Nuclear contribution   :    -49.42681      -6.56561       1.76220
                        -----------------------------------------
Total Dipole Moment    :     -5.78120      -0.31468      -0.01842
                        -----------------------------------------
Magnitude (a.u.)       :      5.78978
Magnitude (Debye)      :     14.71646

Rotational constants in cm-1:     0.020266     0.009962     0.009547
Rotational constants in MHz :   607.559992   298.655805   286.218284

                             ****ORCA TERMINATED NORMALLY****
TOTAL RUN TIME: 0 days 21 hours 37 minutes 25 seconds 20 msec
