                         Program Version 4.1.2  - RELEASE  -
|  1> ! aug-cc-pVTZ aug-cc-pVTZ/C DLPNO-CCSD(T1) TightSCF NormalPNO UNO MiniPrint AutoAux
|  2> %pal nproc 10 end
|  3> %maxcore 20000
|  4> %mdci
|  5>      density none
|  6> end
|  7>
|  8> * xyz 0 6
|  9>  O      0.25054400      0.34427200     -0.80884000
| 10>  C      0.98739300      1.33997500     -0.63166200
| 11>  C      3.21110300     -0.01841400      0.39298100
| 12>  C      2.53496500     -0.98522400     -0.25764800
| 13>  C      2.77448000     -1.26247900     -1.71740400
| 14> Fe     -1.46849500     -0.14610900      0.04286000
| 15> Cl     -2.09908400     -1.95299000     -0.98733500
| 16>  C      1.60564200     -1.95946200      0.40782600
| 17> Cl     -2.63129600      1.65423700     -0.41049800
| 18> Cl     -1.15113000     -0.37949500      2.19943500
| 19>  H      3.92892200      0.56529700     -0.18464300
| 20>  H      2.11222200     -2.92918600      0.51046600
| 21>  H      1.27654400     -1.64952000      1.39954300
| 22>  H      0.72040800     -2.14417600     -0.21040900
| 23>  H      3.14709000     -2.28707600     -1.84689800
| 24>  H      1.83698500     -1.20106100     -2.28442200
| 25>  H      3.50824200     -0.58111400     -2.15833600
| 26>  C      3.20280100      0.25595300      1.87153700
| 27>  H      4.07724700     -0.20495000      2.35126300
| 28>  H      3.26416300      1.32991700      2.08116900
| 29>  H      2.31298600     -0.13487600      2.37199500
| 30>  C      0.88505200      2.17009900      0.60741900
| 31>  H      1.77016700      2.78935700      0.75822600
| 32>  H      0.01576700      2.83048300      0.46924900
| 33>  H      0.68795100      1.55386200      1.48547500
| 34>  C      1.75681400      1.87874900     -1.79662300
| 35>  H      1.15644000      2.70635200     -2.20325400
| 36>  H      2.72164800      2.28859400     -1.49317400
| 37>  H      1.87588200      1.12779300     -2.57568000
| 38> *
| 39>
| 40>
| 41>                          ****END OF INPUT****

CARTESIAN COORDINATES (ANGSTROEM)
---------------------------------
  O      0.250544    0.344272   -0.808840
  C      0.987393    1.339975   -0.631662
  C      3.211103   -0.018414    0.392981
  C      2.534965   -0.985224   -0.257648
  C      2.774480   -1.262479   -1.717404
  Fe    -1.468495   -0.146109    0.042860
  Cl    -2.099084   -1.952990   -0.987335
  C      1.605642   -1.959462    0.407826
  Cl    -2.631296    1.654237   -0.410498
  Cl    -1.151130   -0.379495    2.199435
  H      3.928922    0.565297   -0.184643
  H      2.112222   -2.929186    0.510466
  H      1.276544   -1.649520    1.399543
  H      0.720408   -2.144176   -0.210409
  H      3.147090   -2.287076   -1.846898
  H      1.836985   -1.201061   -2.284422
  H      3.508242   -0.581114   -2.158336
  C      3.202801    0.255953    1.871537
  H      4.077247   -0.204950    2.351263
  H      3.264163    1.329917    2.081169
  H      2.312986   -0.134876    2.371995
  C      0.885052    2.170099    0.607419
  H      1.770167    2.789357    0.758226
  H      0.015767    2.830483    0.469249
  H      0.687951    1.553862    1.485475
  C      1.756814    1.878749   -1.796623
  H      1.156440    2.706352   -2.203254
  H      2.721648    2.288594   -1.493174
  H      1.875882    1.127793   -2.575680

ORBITAL ENERGIES
----------------
                 SPIN UP ORBITALS
  NO   OCC          E(Eh)            E(eV)
   0   1.0000    -261.578511     -7117.9131
   1   1.0000    -104.794996     -2851.6168
   2   1.0000    -104.792431     -2851.5470
   3   1.0000    -104.790836     -2851.5036
   4   1.0000     -32.246155      -877.4625
   5   1.0000     -27.722687      -754.3727
   6   1.0000     -27.721469      -754.3395
   7   1.0000     -27.721290      -754.3347
   8   1.0000     -20.623231      -561.1867
   9   1.0000     -11.422826      -310.8309
  10   1.0000     -11.279222      -306.9232
  11   1.0000     -11.273370      -306.7640
  12   1.0000     -11.261257      -306.4344
  13   1.0000     -11.239741      -305.8489
  14   1.0000     -11.238049      -305.8029
  15   1.0000     -11.237484      -305.7875
  16   1.0000     -11.227109      -305.5052
  17   1.0000     -10.521721      -286.3106
  18   1.0000     -10.519129      -286.2400
  19   1.0000     -10.517477      -286.1951
  20   1.0000      -7.988544      -217.3793
  21   1.0000      -7.987811      -217.3594
  22   1.0000      -7.987752      -217.3578
  23   1.0000      -7.986031      -217.3110
  24   1.0000      -7.985216      -217.2888
  25   1.0000      -7.985154      -217.2871
  26   1.0000      -7.984257      -217.2627
  27   1.0000      -7.983603      -217.2449
  28   1.0000      -7.983562      -217.2438
  29   1.0000      -4.600929      -125.1977
  30   1.0000      -3.214093       -87.4599
  31   1.0000      -3.212271       -87.4103
  32   1.0000      -3.212167       -87.4075
  33   1.0000      -1.469527       -39.9879
  34   1.0000      -1.121574       -30.5196
  35   1.0000      -1.103597       -30.0304
  36   1.0000      -1.068603       -29.0782
  37   1.0000      -1.062929       -28.9238
  38   1.0000      -1.060523       -28.8583
  39   1.0000      -1.021017       -27.7833
  40   1.0000      -1.009995       -27.4834
  41   1.0000      -0.955436       -25.9987
  42   1.0000      -0.944524       -25.7018
  43   1.0000      -0.929806       -25.3013
  44   1.0000      -0.929670       -25.2976
  45   1.0000      -0.918691       -24.9989
  46   1.0000      -0.918211       -24.9858
  47   1.0000      -0.893321       -24.3085
  48   1.0000      -0.816232       -22.2108
  49   1.0000      -0.725615       -19.7450
  50   1.0000      -0.715158       -19.4604
  51   1.0000      -0.705861       -19.2074
  52   1.0000      -0.687167       -18.6988
  53   1.0000      -0.651618       -17.7314
  54   1.0000      -0.622257       -16.9325
  55   1.0000      -0.618273       -16.8241
  56   1.0000      -0.603028       -16.4092
  57   1.0000      -0.600259       -16.3339
  58   1.0000      -0.586409       -15.9570
  59   1.0000      -0.580005       -15.7827
  60   1.0000      -0.560759       -15.2590
  61   1.0000      -0.550831       -14.9889
  62   1.0000      -0.549138       -14.9428
  63   1.0000      -0.537062       -14.6142
  64   1.0000      -0.535408       -14.5692
  65   1.0000      -0.523972       -14.2580
  66   1.0000      -0.505425       -13.7533
  67   1.0000      -0.489831       -13.3290
  68   1.0000      -0.478428       -13.0187
  69   1.0000      -0.477903       -13.0044
  70   1.0000      -0.448526       -12.2050
  71   1.0000      -0.442087       -12.0298
  72   1.0000      -0.440454       -11.9854
  73   1.0000      -0.431891       -11.7523
  74   1.0000      -0.430581       -11.7167
  75   1.0000      -0.429749       -11.6941
  76   1.0000      -0.355839        -9.6829
  77   0.0000       0.012912         0.3514
  78   0.0000       0.023899         0.6503
  79   0.0000       0.024798         0.6748
  80   0.0000       0.030763         0.8371
  81   0.0000       0.039564         1.0766

                 SPIN DOWN ORBITALS
  NO   OCC          E(Eh)            E(eV)
   0   1.0000    -261.574928     -7117.8157
   1   1.0000    -104.793492     -2851.5759
   2   1.0000    -104.790874     -2851.5047
   3   1.0000    -104.789267     -2851.4609
   4   1.0000     -32.084190      -873.0552
   5   1.0000     -27.562143      -750.0041
   6   1.0000     -27.562012      -750.0005
   7   1.0000     -27.561929      -749.9982
   8   1.0000     -20.619915      -561.0964
   9   1.0000     -11.422726      -310.8282
  10   1.0000     -11.279122      -306.9205
  11   1.0000     -11.273369      -306.7640
  12   1.0000     -11.261329      -306.4363
  13   1.0000     -11.239640      -305.8461
  14   1.0000     -11.238038      -305.8026
  15   1.0000     -11.237494      -305.7877
  16   1.0000     -11.227114      -305.5053
  17   1.0000     -10.520115      -286.2669
  18   1.0000     -10.517466      -286.1948
  19   1.0000     -10.515811      -286.1498
  20   1.0000      -7.986044      -217.3113
  21   1.0000      -7.985275      -217.2904
  22   1.0000      -7.985232      -217.2892
  23   1.0000      -7.983320      -217.2372
  24   1.0000      -7.982678      -217.2197
  25   1.0000      -7.982579      -217.2170
  26   1.0000      -7.981809      -217.1961
  27   1.0000      -7.980889      -217.1710
  28   1.0000      -7.980811      -217.1689
  29   1.0000      -4.158893      -113.1692
  30   1.0000      -2.680442       -72.9385
  31   1.0000      -2.680361       -72.9363
  32   1.0000      -2.679979       -72.9259
  33   1.0000      -1.461393       -39.7665
  34   1.0000      -1.121287       -30.5118
  35   1.0000      -1.101410       -29.9709
  36   1.0000      -1.052888       -28.6505
  37   1.0000      -1.040289       -28.3077
  38   1.0000      -1.037682       -28.2368
  39   1.0000      -1.020133       -27.7592
  40   1.0000      -1.009684       -27.4749
  41   1.0000      -0.955210       -25.9926
  42   1.0000      -0.893432       -24.3115
  43   1.0000      -0.828246       -22.5377
  44   1.0000      -0.725696       -19.7472
  45   1.0000      -0.716874       -19.5071
  46   1.0000      -0.705095       -19.1866
  47   1.0000      -0.686594       -18.6832
  48   1.0000      -0.651572       -17.7302
  49   1.0000      -0.621704       -16.9174
  50   1.0000      -0.618194       -16.8219
  51   1.0000      -0.602863       -16.4047
  52   1.0000      -0.600196       -16.3322
  53   1.0000      -0.586150       -15.9499
  54   1.0000      -0.578990       -15.7551
  55   1.0000      -0.559619       -15.2280
  56   1.0000      -0.549840       -14.9619
  57   1.0000      -0.547688       -14.9033
  58   1.0000      -0.536850       -14.6084
  59   1.0000      -0.526292       -14.3211
  60   1.0000      -0.522685       -14.2230
  61   1.0000      -0.506770       -13.7899
  62   1.0000      -0.489509       -13.3202
  63   1.0000      -0.486838       -13.2475
  64   1.0000      -0.484801       -13.1921
  65   1.0000      -0.455400       -12.3921
  66   1.0000      -0.452505       -12.3133
  67   1.0000      -0.449471       -12.2307
  68   1.0000      -0.432838       -11.7781
  69   1.0000      -0.431204       -11.7337
  70   1.0000      -0.414822       -11.2879
  71   1.0000      -0.355345        -9.6694
  72   0.0000       0.012897         0.3509
  73   0.0000       0.023875         0.6497
  74   0.0000       0.024759         0.6737
  75   0.0000       0.030706         0.8356
  76   0.0000       0.039462         1.0738

E(0)                                       ...  -3028.466440127
E(0)                                       ...  -3028.466440127
E(CORR)(strong-pairs)                      ...     -2.867102050
E(CORR)(weak-pairs)                        ...     -0.035220467
E(CORR)(corrected)                         ...     -2.902322517
E(TOT)                                     ...  -3031.368762643
E(CCSD(T))                                 ...  -3031.486594184
FINAL SINGLE POINT ENERGY     -3031.486594183734

DIPOLE MOMENT
-------------
                                X             Y             Z
Electronic contribution:    -43.50828      -3.92657       2.13051
Nuclear contribution   :     46.68254       5.39045      -2.74893
                        -----------------------------------------
Total Dipole Moment    :      3.17426       1.46387      -0.61843
                        -----------------------------------------
Magnitude (a.u.)       :      3.54983
Magnitude (Debye)      :      9.02295

Rotational constants in cm-1:     0.018794     0.010766     0.010149
Rotational constants in MHz :   563.416813   322.768252   304.260336

                             ****ORCA TERMINATED NORMALLY****
TOTAL RUN TIME: 0 days 17 hours 44 minutes 34 seconds 636 msec
