                         Program Version 4.1.2  - RELEASE  -
|  1> ! aug-cc-pVTZ aug-cc-pVTZ/C DLPNO-CCSD(T1) TightSCF NormalPNO UNO MiniPrint AutoAux
|  2> %pal nproc 10 end
|  3> %maxcore 20000
|  4> %mdci
|  5>      density none
|  6> end
|  7>
|  8> * xyz 0 6
|  9>  O     -0.31258600     -0.19268000     -0.67882900
| 10>  C     -1.20839700     -1.12616300     -0.52383300
| 11>  C     -2.70162900     -0.36104700      0.56468000
| 12>  C     -2.65269800      0.87924400     -0.04844100
| 13>  C     -3.41447000      1.16660600     -1.30058500
| 14> Fe      1.44072200      0.14591500     -0.03916300
| 15> Cl      1.91519500      2.10249400     -0.91755000
| 16>  C     -1.77748200      1.97215700      0.43511700
| 17> Cl      2.65807000     -1.54322000     -0.73151300
| 18> Cl      1.30237600      0.24676900      2.16847100
| 19>  H     -3.48173100     -1.02763300      0.19889800
| 20>  H     -2.24522800      2.95029400      0.28335300
| 21>  H     -1.45825400      1.86371200      1.47099800
| 22>  H     -0.87107400      1.95953700     -0.19253000
| 23>  H     -4.09851800      2.00394500     -1.10821100
| 24>  H     -2.73575500      1.50207700     -2.09590200
| 25>  H     -4.00261000      0.31708600     -1.65074100
| 26>  C     -2.37130000     -0.51935100      2.03903800
| 27>  H     -3.07786400      0.06994600      2.63521100
| 28>  H     -2.47319400     -1.56060100      2.34986000
| 29>  H     -1.36118200     -0.18821700      2.28731100
| 30>  C     -0.82397200     -2.29744300      0.36637700
| 31>  H     -1.66200800     -2.97197000      0.55600200
| 32>  H     -0.05271700     -2.84524200     -0.19029200
| 33>  H     -0.37876300     -1.97299700      1.30630600
| 34>  C     -1.87351700     -1.55255200     -1.82408500
| 35>  H     -1.13743000     -2.17171800     -2.35088700
| 36>  H     -2.77302800     -2.15254900     -1.66558800
| 37>  H     -2.09384500     -0.69946000     -2.46443300
| 38> *
| 39>
| 40>
| 41>                          ****END OF INPUT****

CARTESIAN COORDINATES (ANGSTROEM)
---------------------------------
  O     -0.312586   -0.192680   -0.678829
  C     -1.208397   -1.126163   -0.523833
  C     -2.701629   -0.361047    0.564680
  C     -2.652698    0.879244   -0.048441
  C     -3.414470    1.166606   -1.300585
  Fe     1.440722    0.145915   -0.039163
  Cl     1.915195    2.102494   -0.917550
  C     -1.777482    1.972157    0.435117
  Cl     2.658070   -1.543220   -0.731513
  Cl     1.302376    0.246769    2.168471
  H     -3.481731   -1.027633    0.198898
  H     -2.245228    2.950294    0.283353
  H     -1.458254    1.863712    1.470998
  H     -0.871074    1.959537   -0.192530
  H     -4.098518    2.003945   -1.108211
  H     -2.735755    1.502077   -2.095902
  H     -4.002610    0.317086   -1.650741
  C     -2.371300   -0.519351    2.039038
  H     -3.077864    0.069946    2.635211
  H     -2.473194   -1.560601    2.349860
  H     -1.361182   -0.188217    2.287311
  C     -0.823972   -2.297443    0.366377
  H     -1.662008   -2.971970    0.556002
  H     -0.052717   -2.845242   -0.190292
  H     -0.378763   -1.972997    1.306306
  C     -1.873517   -1.552552   -1.824085
  H     -1.137430   -2.171718   -2.350887
  H     -2.773028   -2.152549   -1.665588
  H     -2.093845   -0.699460   -2.464433

ORBITAL ENERGIES
----------------
                 SPIN UP ORBITALS
  NO   OCC          E(Eh)            E(eV)
   0   1.0000    -261.554683     -7117.2648
   1   1.0000    -104.779933     -2851.2069
   2   1.0000    -104.775897     -2851.0971
   3   1.0000    -104.775744     -2851.0929
   4   1.0000     -32.222570      -876.8207
   5   1.0000     -27.698635      -753.7182
   6   1.0000     -27.698166      -753.7054
   7   1.0000     -27.697957      -753.6997
   8   1.0000     -20.564646      -559.5925
   9   1.0000     -11.391939      -309.9904
  10   1.0000     -11.345709      -308.7324
  11   1.0000     -11.278367      -306.9000
  12   1.0000     -11.274714      -306.8006
  13   1.0000     -11.258670      -306.3640
  14   1.0000     -11.256865      -306.3149
  15   1.0000     -11.252527      -306.1968
  16   1.0000     -11.247789      -306.0679
  17   1.0000     -10.506583      -285.8987
  18   1.0000     -10.502540      -285.7886
  19   1.0000     -10.502329      -285.7829
  20   1.0000      -7.973462      -216.9689
  21   1.0000      -7.972620      -216.9460
  22   1.0000      -7.972587      -216.9451
  23   1.0000      -7.969374      -216.8577
  24   1.0000      -7.969150      -216.8516
  25   1.0000      -7.968643      -216.8378
  26   1.0000      -7.968576      -216.8360
  27   1.0000      -7.968432      -216.8321
  28   1.0000      -7.968353      -216.8299
  29   1.0000      -4.577873      -124.5703
  30   1.0000      -3.190582       -86.8201
  31   1.0000      -3.189776       -86.7982
  32   1.0000      -3.189401       -86.7880
  33   1.0000      -1.407995       -38.3135
  34   1.0000      -1.171939       -31.8901
  35   1.0000      -1.083381       -29.4803
  36   1.0000      -1.051117       -28.6024
  37   1.0000      -1.045678       -28.4544
  38   1.0000      -1.042890       -28.3785
  39   1.0000      -1.040364       -28.3097
  40   1.0000      -0.996317       -27.1112
  41   1.0000      -0.985142       -26.8071
  42   1.0000      -0.927140       -25.2288
  43   1.0000      -0.918522       -24.9942
  44   1.0000      -0.907193       -24.6860
  45   1.0000      -0.907155       -24.6849
  46   1.0000      -0.898067       -24.4376
  47   1.0000      -0.897436       -24.4205
  48   1.0000      -0.790118       -21.5002
  49   1.0000      -0.763108       -20.7652
  50   1.0000      -0.694136       -18.8884
  51   1.0000      -0.689147       -18.7527
  52   1.0000      -0.674435       -18.3523
  53   1.0000      -0.662004       -18.0140
  54   1.0000      -0.649711       -17.6795
  55   1.0000      -0.626317       -17.0429
  56   1.0000      -0.600714       -16.3463
  57   1.0000      -0.594213       -16.1694
  58   1.0000      -0.584669       -15.9096
  59   1.0000      -0.578410       -15.7393
  60   1.0000      -0.572037       -15.5659
  61   1.0000      -0.566192       -15.4069
  62   1.0000      -0.553546       -15.0627
  63   1.0000      -0.547658       -14.9025
  64   1.0000      -0.532905       -14.5011
  65   1.0000      -0.524262       -14.2659
  66   1.0000      -0.516698       -14.0601
  67   1.0000      -0.478245       -13.0137
  68   1.0000      -0.464588       -12.6421
  69   1.0000      -0.456251       -12.4152
  70   1.0000      -0.430401       -11.7118
  71   1.0000      -0.428503       -11.6602
  72   1.0000      -0.425838       -11.5876
  73   1.0000      -0.417206       -11.3528
  74   1.0000      -0.415610       -11.3093
  75   1.0000      -0.415117       -11.2959
  76   1.0000      -0.387345       -10.5402
  77   0.0000       0.008625         0.2347
  78   0.0000       0.019527         0.5314
  79   0.0000       0.021647         0.5891
  80   0.0000       0.023478         0.6389
  81   0.0000       0.031482         0.8567

                 SPIN DOWN ORBITALS
  NO   OCC          E(Eh)            E(eV)
   0   1.0000    -261.551129     -7117.1681
   1   1.0000    -104.778543     -2851.1691
   2   1.0000    -104.774430     -2851.0572
   3   1.0000    -104.774322     -2851.0542
   4   1.0000     -32.060507      -872.4108
   5   1.0000     -27.538517      -749.3611
   6   1.0000     -27.538399      -749.3579
   7   1.0000     -27.538034      -749.3480
   8   1.0000     -20.559813      -559.4610
   9   1.0000     -11.391906      -309.9895
  10   1.0000     -11.345591      -308.7292
  11   1.0000     -11.278383      -306.9004
  12   1.0000     -11.274596      -306.7974
  13   1.0000     -11.258556      -306.3609
  14   1.0000     -11.256904      -306.3159
  15   1.0000     -11.252499      -306.1961
  16   1.0000     -11.247804      -306.0683
  17   1.0000     -10.505089      -285.8580
  18   1.0000     -10.500971      -285.7459
  19   1.0000     -10.500810      -285.7416
  20   1.0000      -7.970961      -216.9009
  21   1.0000      -7.970415      -216.8860
  22   1.0000      -7.970346      -216.8841
  23   1.0000      -7.966913      -216.7907
  24   1.0000      -7.966770      -216.7868
  25   1.0000      -7.966200      -216.7713
  26   1.0000      -7.966119      -216.7691
  27   1.0000      -7.966062      -216.7676
  28   1.0000      -7.965967      -216.7650
  29   1.0000      -4.135582      -112.5349
  30   1.0000      -2.657360       -72.3104
  31   1.0000      -2.657312       -72.3091
  32   1.0000      -2.656447       -72.2856
  33   1.0000      -1.395694       -37.9788
  34   1.0000      -1.171149       -31.8686
  35   1.0000      -1.080581       -29.4041
  36   1.0000      -1.040854       -28.3231
  37   1.0000      -1.035809       -28.1858
  38   1.0000      -1.024461       -27.8770
  39   1.0000      -1.021968       -27.8092
  40   1.0000      -0.996227       -27.1087
  41   1.0000      -0.984338       -26.7852
  42   1.0000      -0.923570       -25.1316
  43   1.0000      -0.803009       -21.8510
  44   1.0000      -0.764038       -20.7905
  45   1.0000      -0.695063       -18.9136
  46   1.0000      -0.688604       -18.7379
  47   1.0000      -0.675681       -18.3862
  48   1.0000      -0.661533       -18.0012
  49   1.0000      -0.649317       -17.6688
  50   1.0000      -0.625847       -17.0302
  51   1.0000      -0.599771       -16.3206
  52   1.0000      -0.594391       -16.1742
  53   1.0000      -0.584491       -15.9048
  54   1.0000      -0.577915       -15.7259
  55   1.0000      -0.571811       -15.5598
  56   1.0000      -0.565642       -15.3919
  57   1.0000      -0.553370       -15.0580
  58   1.0000      -0.546926       -14.8826
  59   1.0000      -0.528401       -14.3785
  60   1.0000      -0.524193       -14.2640
  61   1.0000      -0.507385       -13.8067
  62   1.0000      -0.476881       -12.9766
  63   1.0000      -0.469343       -12.7715
  64   1.0000      -0.465257       -12.6603
  65   1.0000      -0.440601       -11.9894
  66   1.0000      -0.437178       -11.8962
  67   1.0000      -0.435023       -11.8376
  68   1.0000      -0.423326       -11.5193
  69   1.0000      -0.414724       -11.2852
  70   1.0000      -0.401613       -10.9284
  71   1.0000      -0.383353       -10.4316
  72   0.0000       0.008621         0.2346
  73   0.0000       0.019404         0.5280
  74   0.0000       0.021609         0.5880
  75   0.0000       0.023043         0.6270
  76   0.0000       0.031334         0.8526

E(0)                                       ...  -3028.428188622
E(0)                                       ...  -3028.428188622
E(CORR)(strong-pairs)                      ...     -2.874699741
E(CORR)(weak-pairs)                        ...     -0.036751947
E(CORR)(corrected)                         ...     -2.911451687
E(TOT)                                     ...  -3031.339640309
E(CCSD(T))                                 ...  -3031.459969053
FINAL SINGLE POINT ENERGY     -3031.459969052802

DIPOLE MOMENT
-------------
                                X             Y             Z
Electronic contribution:     41.41826       5.89488       0.79526
Nuclear contribution   :    -46.08212      -6.39617      -1.18958
                        -----------------------------------------
Total Dipole Moment    :     -4.66386      -0.50129      -0.39432
                        -----------------------------------------
Magnitude (a.u.)       :      4.70727
Magnitude (Debye)      :     11.96492

Rotational constants in cm-1:     0.019244     0.011090     0.010422
Rotational constants in MHz :   576.927698   332.454861   312.429232

                             ****ORCA TERMINATED NORMALLY****
TOTAL RUN TIME: 0 days 21 hours 26 minutes 2 seconds 904 msec
