                         Program Version 4.1.2  - RELEASE  -
|  1> ! aug-cc-pVTZ aug-cc-pVTZ/C DLPNO-CCSD(T1) TightSCF NormalPNO UNO MiniPrint AutoAux
|  2> %pal nproc 10 end
|  3> %maxcore 20000
|  4> %mdci
|  5>      density none
|  6> end
|  7>
|  8> * xyz 0 6
|  9>  O     -0.28537500     -0.37284400     -0.71824400
| 10>  C     -1.36198600     -1.22907300     -0.46135300
| 11>  C     -2.48872000     -0.40030000      0.31557000
| 12>  C     -2.32877800      1.01806000     -0.09187800
| 13>  C     -2.80111300      1.46648900     -1.41882300
| 14> Fe      1.35161000      0.06955600     -0.04626200
| 15> Cl      1.45039200      2.24171400     -0.68477500
| 16>  C     -1.61453800      1.98560700      0.71297500
| 17> Cl      2.93457700     -1.22728000     -0.83040400
| 18> Cl      1.18714800      0.02503900      2.18011700
| 19>  H     -3.44599400     -0.74560800     -0.09485600
| 20>  H     -2.04390600      2.99016400      0.64860500
| 21>  H     -1.39519800      1.68530300      1.73435000
| 22>  H     -0.62059600      2.09253000      0.18756000
| 23>  H     -3.06509600      2.52693900     -1.43079500
| 24>  H     -1.92058500      1.34983300     -2.07510500
| 25>  H     -3.60747300      0.85430800     -1.82409300
| 26>  C     -2.50154100     -0.59413500      1.83983300
| 27>  H     -3.23065500      0.07595800      2.30770500
| 28>  H     -2.79919700     -1.61825900      2.07401000
| 29>  H     -1.52157900     -0.41502800      2.28638200
| 30>  C     -0.90978000     -2.44347200      0.35856800
| 31>  H     -1.73258300     -3.13968400      0.55168400
| 32>  H     -0.14742800     -2.96474800     -0.22939000
| 33>  H     -0.45597800     -2.14742200      1.30528100
| 34>  C     -1.91119700     -1.71902500     -1.81102100
| 35>  H     -1.11474100     -2.26211300     -2.32668000
| 36>  H     -2.76566300     -2.39129400     -1.67448400
| 37>  H     -2.21227000     -0.89254000     -2.45858100
| 38> *
| 39>
| 40>
| 41>                          ****END OF INPUT****

CARTESIAN COORDINATES (ANGSTROEM)
---------------------------------
  O     -0.285375   -0.372844   -0.718244
  C     -1.361986   -1.229073   -0.461353
  C     -2.488720   -0.400300    0.315570
  C     -2.328778    1.018060   -0.091878
  C     -2.801113    1.466489   -1.418823
  Fe     1.351610    0.069556   -0.046262
  Cl     1.450392    2.241714   -0.684775
  C     -1.614538    1.985607    0.712975
  Cl     2.934577   -1.227280   -0.830404
  Cl     1.187148    0.025039    2.180117
  H     -3.445994   -0.745608   -0.094856
  H     -2.043906    2.990164    0.648605
  H     -1.395198    1.685303    1.734350
  H     -0.620596    2.092530    0.187560
  H     -3.065096    2.526939   -1.430795
  H     -1.920585    1.349833   -2.075105
  H     -3.607473    0.854308   -1.824093
  C     -2.501541   -0.594135    1.839833
  H     -3.230655    0.075958    2.307705
  H     -2.799197   -1.618259    2.074010
  H     -1.521579   -0.415028    2.286382
  C     -0.909780   -2.443472    0.358568
  H     -1.732583   -3.139684    0.551684
  H     -0.147428   -2.964748   -0.229390
  H     -0.455978   -2.147422    1.305281
  C     -1.911197   -1.719025   -1.811021
  H     -1.114741   -2.262113   -2.326680
  H     -2.765663   -2.391294   -1.674484
  H     -2.212270   -0.892540   -2.458581

ORBITAL ENERGIES
----------------
                 SPIN UP ORBITALS
  NO   OCC          E(Eh)            E(eV)
   0   1.0000    -261.541276     -7116.8999
   1   1.0000    -104.773777     -2851.0394
   2   1.0000    -104.772968     -2851.0174
   3   1.0000    -104.766972     -2850.8542
   4   1.0000     -32.209123      -876.4548
   5   1.0000     -27.685290      -753.3550
   6   1.0000     -27.684857      -753.3433
   7   1.0000     -27.684335      -753.3290
   8   1.0000     -20.530445      -558.6618
   9   1.0000     -11.415736      -310.6380
  10   1.0000     -11.330845      -308.3280
  11   1.0000     -11.299878      -307.4853
  12   1.0000     -11.293890      -307.3224
  13   1.0000     -11.278131      -306.8935
  14   1.0000     -11.254753      -306.2574
  15   1.0000     -11.237222      -305.7804
  16   1.0000     -11.228670      -305.5476
  17   1.0000     -10.500241      -285.7261
  18   1.0000     -10.499573      -285.7079
  19   1.0000     -10.493508      -285.5429
  20   1.0000      -7.967082      -216.7953
  21   1.0000      -7.966488      -216.7792
  22   1.0000      -7.966252      -216.7727
  23   1.0000      -7.966113      -216.7690
  24   1.0000      -7.965587      -216.7546
  25   1.0000      -7.965546      -216.7535
  26   1.0000      -7.960257      -216.6096
  27   1.0000      -7.959649      -216.5931
  28   1.0000      -7.959541      -216.5901
  29   1.0000      -4.564689      -124.2115
  30   1.0000      -3.177318       -86.4592
  31   1.0000      -3.176774       -86.4444
  32   1.0000      -3.176414       -86.4346
  33   1.0000      -1.349281       -36.7158
  34   1.0000      -1.199750       -32.6469
  35   1.0000      -1.097008       -29.8511
  36   1.0000      -1.045107       -28.4388
  37   1.0000      -1.039834       -28.2953
  38   1.0000      -1.038234       -28.2518
  39   1.0000      -1.034175       -28.1413
  40   1.0000      -1.020294       -27.7636
  41   1.0000      -0.962489       -26.1906
  42   1.0000      -0.930531       -25.3210
  43   1.0000      -0.903262       -24.5790
  44   1.0000      -0.894667       -24.3451
  45   1.0000      -0.894100       -24.3297
  46   1.0000      -0.887593       -24.1526
  47   1.0000      -0.886530       -24.1237
  48   1.0000      -0.810703       -22.0604
  49   1.0000      -0.760960       -20.7068
  50   1.0000      -0.714302       -19.4372
  51   1.0000      -0.691614       -18.8198
  52   1.0000      -0.681643       -18.5484
  53   1.0000      -0.644265       -17.5314
  54   1.0000      -0.636228       -17.3126
  55   1.0000      -0.621894       -16.9226
  56   1.0000      -0.610828       -16.6215
  57   1.0000      -0.597779       -16.2664
  58   1.0000      -0.589316       -16.0361
  59   1.0000      -0.587021       -15.9737
  60   1.0000      -0.572571       -15.5804
  61   1.0000      -0.554182       -15.0801
  62   1.0000      -0.549561       -14.9543
  63   1.0000      -0.536396       -14.5961
  64   1.0000      -0.525607       -14.3025
  65   1.0000      -0.517802       -14.0901
  66   1.0000      -0.500547       -13.6206
  67   1.0000      -0.466909       -12.7052
  68   1.0000      -0.463568       -12.6143
  69   1.0000      -0.441205       -12.0058
  70   1.0000      -0.435626       -11.8540
  71   1.0000      -0.421240       -11.4625
  72   1.0000      -0.417567       -11.3626
  73   1.0000      -0.416055       -11.3214
  74   1.0000      -0.410878       -11.1806
  75   1.0000      -0.409616       -11.1462
  76   1.0000      -0.407700       -11.0941
  77   0.0000      -0.005680        -0.1546
  78   0.0000       0.004103         0.1117
  79   0.0000       0.018800         0.5116
  80   0.0000       0.019605         0.5335
  81   0.0000       0.030113         0.8194

                 SPIN DOWN ORBITALS
  NO   OCC          E(Eh)            E(eV)
   0   1.0000    -261.537737     -7116.8036
   1   1.0000    -104.772620     -2851.0079
   2   1.0000    -104.771653     -2850.9816
   3   1.0000    -104.765574     -2850.8162
   4   1.0000     -32.047124      -872.0466
   5   1.0000     -27.525402      -749.0043
   6   1.0000     -27.525063      -748.9951
   7   1.0000     -27.524335      -748.9752
   8   1.0000     -20.523510      -558.4731
   9   1.0000     -11.415750      -310.6384
  10   1.0000     -11.330611      -308.3216
  11   1.0000     -11.299873      -307.4852
  12   1.0000     -11.293782      -307.3194
  13   1.0000     -11.278169      -306.8946
  14   1.0000     -11.254760      -306.2576
  15   1.0000     -11.237112      -305.7774
  16   1.0000     -11.228628      -305.5465
  17   1.0000     -10.498987      -285.6920
  18   1.0000     -10.498153      -285.6693
  19   1.0000     -10.492015      -285.5022
  20   1.0000      -7.964764      -216.7323
  21   1.0000      -7.964531      -216.7259
  22   1.0000      -7.964400      -216.7223
  23   1.0000      -7.964002      -216.7115
  24   1.0000      -7.963558      -216.6994
  25   1.0000      -7.963512      -216.6982
  26   1.0000      -7.958069      -216.5501
  27   1.0000      -7.957218      -216.5269
  28   1.0000      -7.957147      -216.5250
  29   1.0000      -4.122677      -112.1838
  30   1.0000      -2.644765       -71.9677
  31   1.0000      -2.644519       -71.9610
  32   1.0000      -2.643798       -71.9414
  33   1.0000      -1.331163       -36.2228
  34   1.0000      -1.198393       -32.6099
  35   1.0000      -1.093999       -29.7692
  36   1.0000      -1.041206       -28.3326
  37   1.0000      -1.029144       -28.0044
  38   1.0000      -1.021834       -27.8055
  39   1.0000      -1.018137       -27.7049
  40   1.0000      -1.014023       -27.5930
  41   1.0000      -0.961675       -26.1685
  42   1.0000      -0.929156       -25.2836
  43   1.0000      -0.814247       -22.1568
  44   1.0000      -0.768145       -20.9023
  45   1.0000      -0.715638       -19.4735
  46   1.0000      -0.691506       -18.8168
  47   1.0000      -0.682026       -18.5589
  48   1.0000      -0.644031       -17.5250
  49   1.0000      -0.638582       -17.3767
  50   1.0000      -0.619581       -16.8597
  51   1.0000      -0.610926       -16.6241
  52   1.0000      -0.598226       -16.2786
  53   1.0000      -0.588629       -16.0174
  54   1.0000      -0.586213       -15.9517
  55   1.0000      -0.570779       -15.5317
  56   1.0000      -0.554123       -15.0784
  57   1.0000      -0.546816       -14.8796
  58   1.0000      -0.535014       -14.5585
  59   1.0000      -0.521194       -14.1824
  60   1.0000      -0.516169       -14.0457
  61   1.0000      -0.496905       -13.5215
  62   1.0000      -0.465419       -12.6647
  63   1.0000      -0.462867       -12.5953
  64   1.0000      -0.445494       -12.1225
  65   1.0000      -0.445356       -12.1187
  66   1.0000      -0.433445       -11.7946
  67   1.0000      -0.429047       -11.6750
  68   1.0000      -0.426440       -11.6040
  69   1.0000      -0.407624       -11.0920
  70   1.0000      -0.398882       -10.8541
  71   1.0000      -0.397455       -10.8153
  72   0.0000      -0.005893        -0.1604
  73   0.0000       0.004101         0.1116
  74   0.0000       0.018787         0.5112
  75   0.0000       0.019589         0.5331
  76   0.0000       0.030139         0.8201

E(0)                                       ...  -3028.424821513
E(0)                                       ...  -3028.424821513
E(CORR)(strong-pairs)                      ...     -2.871005271
E(CORR)(weak-pairs)                        ...     -0.036190701
E(CORR)(corrected)                         ...     -2.907195971
E(TOT)                                     ...  -3031.332017484
E(CCSD(T))                                 ...  -3031.449478750
FINAL SINGLE POINT ENERGY     -3031.449478750341

DIPOLE MOMENT
-------------
                                X             Y             Z
Electronic contribution:     38.41830       6.91930       1.42712
Nuclear contribution   :    -43.57707      -6.51423      -1.73824
                        -----------------------------------------
Total Dipole Moment    :     -5.15877       0.40507      -0.31112
                        -----------------------------------------
Magnitude (a.u.)       :      5.18399
Magnitude (Debye)      :     13.17666

Rotational constants in cm-1:     0.018874     0.012010     0.010944
Rotational constants in MHz :   565.829068   360.040217   328.096712

                             ****ORCA TERMINATED NORMALLY****
TOTAL RUN TIME: 0 days 20 hours 43 minutes 55 seconds 485 msec
