                         Program Version 4.1.2  - RELEASE  -
|  1> ! aug-cc-pVTZ aug-cc-pVTZ/C DLPNO-CCSD(T1) TightSCF NormalPNO UNO MiniPrint AutoAux
|  2> %pal nproc 10 end
|  3> %maxcore 20000
|  4> %mdci
|  5>      density none
|  6> end
|  7>
|  8> * xyz 0 6
|  9>  O      0.25124300      0.31222000     -0.82421700
| 10>  C      1.03223700      1.28057100     -0.65245900
| 11>  C      3.11609100      0.05157800      0.42903400
| 12>  C      2.53798700     -0.98586000     -0.21120300
| 13>  C      2.85252600     -1.29976800     -1.64761400
| 14> Fe     -1.46387500     -0.13848300      0.03156800
| 15> Cl     -2.09662200     -1.97592300     -0.94635300
| 16>  C      1.61768300     -1.97249700      0.44434300
| 17> Cl     -2.63078600      1.64923400     -0.45857700
| 18> Cl     -1.13734300     -0.32844500      2.19460200
| 19>  H      3.83558700      0.64700500     -0.13317500
| 20>  H      2.14127500     -2.93118400      0.56305200
| 21>  H      1.26184300     -1.66089400      1.42582800
| 22>  H      0.74896300     -2.17699400     -0.19193100
| 23>  H      3.26084500     -2.31576200     -1.72469500
| 24>  H      1.93864200     -1.28768300     -2.25565900
| 25>  H      3.58384500     -0.61057100     -2.07918600
| 26>  C      3.05515800      0.33968800      1.90510900
| 27>  H      3.90075100     -0.13899500      2.41772200
| 28>  H      3.13309300      1.41235700      2.10995300
| 29>  H      2.13918300     -0.02814100      2.37454300
| 30>  C      0.89531200      2.17861100      0.53656100
| 31>  H      1.78389500      2.79091000      0.69336600
| 32>  H      0.04733100      2.84448600      0.31586000
| 33>  H      0.64287900      1.62189900      1.43918200
| 34>  C      1.80246400      1.78459300     -1.83553500
| 35>  H      1.17199800      2.56225500     -2.29197900
| 36>  H      2.74718200      2.24827800     -1.54834300
| 37>  H      1.95748500      1.00161100     -2.57543500
| 38> *
| 39>
| 40>
| 41>                          ****END OF INPUT****

CARTESIAN COORDINATES (ANGSTROEM)
---------------------------------
  O      0.251243    0.312220   -0.824217
  C      1.032237    1.280571   -0.652459
  C      3.116091    0.051578    0.429034
  C      2.537987   -0.985860   -0.211203
  C      2.852526   -1.299768   -1.647614
  Fe    -1.463875   -0.138483    0.031568
  Cl    -2.096622   -1.975923   -0.946353
  C      1.617683   -1.972497    0.444343
  Cl    -2.630786    1.649234   -0.458577
  Cl    -1.137343   -0.328445    2.194602
  H      3.835587    0.647005   -0.133175
  H      2.141275   -2.931184    0.563052
  H      1.261843   -1.660894    1.425828
  H      0.748963   -2.176994   -0.191931
  H      3.260845   -2.315762   -1.724695
  H      1.938642   -1.287683   -2.255659
  H      3.583845   -0.610571   -2.079186
  C      3.055158    0.339688    1.905109
  H      3.900751   -0.138995    2.417722
  H      3.133093    1.412357    2.109953
  H      2.139183   -0.028141    2.374543
  C      0.895312    2.178611    0.536561
  H      1.783895    2.790910    0.693366
  H      0.047331    2.844486    0.315860
  H      0.642879    1.621899    1.439182
  C      1.802464    1.784593   -1.835535
  H      1.171998    2.562255   -2.291979
  H      2.747182    2.248278   -1.548343
  H      1.957485    1.001611   -2.575435

ORBITAL ENERGIES
----------------
                 SPIN UP ORBITALS
  NO   OCC          E(Eh)            E(eV)
   0   1.0000    -261.576240     -7117.8513
   1   1.0000    -104.793753     -2851.5830
   2   1.0000    -104.790872     -2851.5046
   3   1.0000    -104.789230     -2851.4599
   4   1.0000     -32.243928      -877.4019
   5   1.0000     -27.720405      -754.3106
   6   1.0000     -27.719268      -754.2796
   7   1.0000     -27.719092      -754.2748
   8   1.0000     -20.618114      -561.0474
   9   1.0000     -11.422136      -310.8121
  10   1.0000     -11.277785      -306.8841
  11   1.0000     -11.271785      -306.7209
  12   1.0000     -11.267673      -306.6090
  13   1.0000     -11.243197      -305.9429
  14   1.0000     -11.241707      -305.9024
  15   1.0000     -11.238724      -305.8212
  16   1.0000     -11.229331      -305.5656
  17   1.0000     -10.520472      -286.2766
  18   1.0000     -10.517560      -286.1974
  19   1.0000     -10.515865      -286.1512
  20   1.0000      -7.987302      -217.3455
  21   1.0000      -7.986553      -217.3252
  22   1.0000      -7.986499      -217.3237
  23   1.0000      -7.984452      -217.2680
  24   1.0000      -7.983651      -217.2462
  25   1.0000      -7.983591      -217.2446
  26   1.0000      -7.982650      -217.2190
  27   1.0000      -7.981991      -217.2010
  28   1.0000      -7.981946      -217.1998
  29   1.0000      -4.598771      -125.1389
  30   1.0000      -3.211897       -87.4002
  31   1.0000      -3.210169       -87.3531
  32   1.0000      -3.210036       -87.3495
  33   1.0000      -1.464225       -39.8436
  34   1.0000      -1.126670       -30.6583
  35   1.0000      -1.101626       -29.9768
  36   1.0000      -1.067004       -29.0347
  37   1.0000      -1.061305       -28.8796
  38   1.0000      -1.058731       -28.8095
  39   1.0000      -1.022006       -27.8102
  40   1.0000      -1.009900       -27.4808
  41   1.0000      -0.958534       -26.0830
  42   1.0000      -0.942842       -25.6560
  43   1.0000      -0.927681       -25.2435
  44   1.0000      -0.927571       -25.2405
  45   1.0000      -0.916819       -24.9479
  46   1.0000      -0.916267       -24.9329
  47   1.0000      -0.896893       -24.4057
  48   1.0000      -0.813679       -22.1413
  49   1.0000      -0.729353       -19.8467
  50   1.0000      -0.712352       -19.3841
  51   1.0000      -0.702909       -19.1271
  52   1.0000      -0.686689       -18.6858
  53   1.0000      -0.655259       -17.8305
  54   1.0000      -0.621937       -16.9238
  55   1.0000      -0.621453       -16.9106
  56   1.0000      -0.603727       -16.4282
  57   1.0000      -0.599916       -16.3245
  58   1.0000      -0.585972       -15.9451
  59   1.0000      -0.578963       -15.7544
  60   1.0000      -0.560676       -15.2568
  61   1.0000      -0.551309       -15.0019
  62   1.0000      -0.549942       -14.9647
  63   1.0000      -0.539843       -14.6899
  64   1.0000      -0.535476       -14.5710
  65   1.0000      -0.526336       -14.3223
  66   1.0000      -0.503324       -13.6961
  67   1.0000      -0.493161       -13.4196
  68   1.0000      -0.477136       -12.9835
  69   1.0000      -0.476318       -12.9613
  70   1.0000      -0.446890       -12.1605
  71   1.0000      -0.440767       -11.9939
  72   1.0000      -0.439079       -11.9479
  73   1.0000      -0.430434       -11.7127
  74   1.0000      -0.429320       -11.6824
  75   1.0000      -0.428304       -11.6548
  76   1.0000      -0.358889        -9.7659
  77   0.0000       0.012777         0.3477
  78   0.0000       0.023683         0.6445
  79   0.0000       0.024368         0.6631
  80   0.0000       0.030658         0.8342
  81   0.0000       0.039410         1.0724

                 SPIN DOWN ORBITALS
  NO   OCC          E(Eh)            E(eV)
   0   1.0000    -261.572661     -7117.7540
   1   1.0000    -104.792266     -2851.5425
   2   1.0000    -104.789322     -2851.4624
   3   1.0000    -104.787673     -2851.4175
   4   1.0000     -32.081942      -872.9940
   5   1.0000     -27.559870      -749.9422
   6   1.0000     -27.559783      -749.9398
   7   1.0000     -27.559676      -749.9369
   8   1.0000     -20.614643      -560.9529
   9   1.0000     -11.422044      -310.8096
  10   1.0000     -11.277679      -306.8812
  11   1.0000     -11.271781      -306.7207
  12   1.0000     -11.267721      -306.6103
  13   1.0000     -11.243108      -305.9405
  14   1.0000     -11.241700      -305.9022
  15   1.0000     -11.238733      -305.8215
  16   1.0000     -11.229341      -305.5659
  17   1.0000     -10.518883      -286.2333
  18   1.0000     -10.515905      -286.1523
  19   1.0000     -10.514211      -286.1062
  20   1.0000      -7.984804      -217.2776
  21   1.0000      -7.984065      -217.2575
  22   1.0000      -7.984021      -217.2563
  23   1.0000      -7.981771      -217.1950
  24   1.0000      -7.981113      -217.1771
  25   1.0000      -7.981017      -217.1745
  26   1.0000      -7.980205      -217.1524
  27   1.0000      -7.979306      -217.1280
  28   1.0000      -7.979226      -217.1258
  29   1.0000      -4.156683      -113.1091
  30   1.0000      -2.678238       -72.8786
  31   1.0000      -2.678186       -72.8771
  32   1.0000      -2.677741       -72.8650
  33   1.0000      -1.455673       -39.6109
  34   1.0000      -1.126353       -30.6496
  35   1.0000      -1.099340       -29.9146
  36   1.0000      -1.051428       -28.6108
  37   1.0000      -1.038888       -28.2696
  38   1.0000      -1.036062       -28.1927
  39   1.0000      -1.021304       -27.7911
  40   1.0000      -1.009386       -27.4668
  41   1.0000      -0.958372       -26.0786
  42   1.0000      -0.897049       -24.4100
  43   1.0000      -0.826148       -22.4806
  44   1.0000      -0.729421       -19.8486
  45   1.0000      -0.714384       -19.4394
  46   1.0000      -0.702079       -19.1046
  47   1.0000      -0.686020       -18.6676
  48   1.0000      -0.655196       -17.8288
  49   1.0000      -0.621452       -16.9106
  50   1.0000      -0.621316       -16.9069
  51   1.0000      -0.603483       -16.4216
  52   1.0000      -0.599852       -16.3228
  53   1.0000      -0.585725       -15.9384
  54   1.0000      -0.577930       -15.7263
  55   1.0000      -0.559651       -15.2289
  56   1.0000      -0.551282       -15.0012
  57   1.0000      -0.547704       -14.9038
  58   1.0000      -0.539871       -14.6906
  59   1.0000      -0.527775       -14.3615
  60   1.0000      -0.522747       -14.2247
  61   1.0000      -0.504752       -13.7350
  62   1.0000      -0.492904       -13.4126
  63   1.0000      -0.485394       -13.2082
  64   1.0000      -0.483188       -13.1482
  65   1.0000      -0.453989       -12.3537
  66   1.0000      -0.451081       -12.2745
  67   1.0000      -0.448146       -12.1947
  68   1.0000      -0.431701       -11.7472
  69   1.0000      -0.429652       -11.6914
  70   1.0000      -0.413599       -11.2546
  71   1.0000      -0.358263        -9.7488
  72   0.0000       0.012761         0.3473
  73   0.0000       0.023660         0.6438
  74   0.0000       0.024333         0.6621
  75   0.0000       0.030598         0.8326
  76   0.0000       0.039303         1.0695

E(0)                                       ...  -3028.461967604
E(0)                                       ...  -3028.461967604
E(CORR)(strong-pairs)                      ...     -2.868301550
E(CORR)(weak-pairs)                        ...     -0.035724620
E(CORR)(corrected)                         ...     -2.904026170
E(TOT)                                     ...  -3031.365993774
E(CCSD(T))                                 ...  -3031.484112397
FINAL SINGLE POINT ENERGY     -3031.484112397196

DIPOLE MOMENT
-------------
                                X             Y             Z
Electronic contribution:    -43.21025      -3.90754       1.98761
Nuclear contribution   :     46.52885       5.25182      -2.62506
                        -----------------------------------------
Total Dipole Moment    :      3.31860       1.34428      -0.63745
                        -----------------------------------------
Magnitude (a.u.)       :      3.63683
Magnitude (Debye)      :      9.24409

Rotational constants in cm-1:     0.018878     0.010867     0.010243
Rotational constants in MHz :   565.933559   325.796423   307.077173

                             ****ORCA TERMINATED NORMALLY****
TOTAL RUN TIME: 0 days 17 hours 57 minutes 13 seconds 299 msec
