                         Program Version 4.1.2  - RELEASE  -
|  1> ! aug-cc-pVTZ aug-cc-pVTZ/C DLPNO-CCSD(T1) TightSCF NormalPNO UNO MiniPrint AutoAux
|  2> %pal nproc 10 end
|  3> %maxcore 20000
|  4> %mdci
|  5>      density none
|  6> end
|  7>
|  8> * xyz 0 6
|  9>  O     -0.29253500     -0.11203600     -0.41489900
| 10>  C     -1.21772200     -1.03994700     -0.17119100
| 11>  C     -2.52996700     -0.29621500      0.81109100
| 12>  C     -3.12159000      0.64766600     -0.06591400
| 13>  C     -4.31086300      0.31764000     -0.89071600
| 14> Fe      1.53972300      0.16802800     -0.10205800
| 15> Cl      1.89236500      2.14215600     -1.00451300
| 16>  C     -2.43617100      1.92931000     -0.28794200
| 17> Cl      2.53113500     -1.53752400     -1.08017500
| 18> Cl      1.86767400      0.17970000      2.08558200
| 19>  H     -3.17762300     -1.15663800      0.98954300
| 20>  H     -2.92993500      2.57872500     -1.01236700
| 21>  H     -2.24605300      2.46922000      0.64609000
| 22>  H     -1.41981400      1.64641200     -0.64909900
| 23>  H     -5.13631600      0.96802600     -0.56222300
| 24>  H     -4.13990200      0.56197800     -1.94660400
| 25>  H     -4.62862700     -0.72149300     -0.79186600
| 26>  C     -1.86973000      0.24567700      2.08199000
| 27>  H     -2.53901200      0.94902100      2.58815700
| 28>  H     -1.65928400     -0.56829400      2.77651600
| 29>  H     -0.92648100      0.74949900      1.86604900
| 30>  C     -0.73708000     -2.16796500      0.75216800
| 31>  H     -1.54831500     -2.84442400      1.03481700
| 32>  H      0.01011200     -2.73228400      0.18260900
| 33>  H     -0.24408600     -1.77992500      1.64347800
| 34>  C     -1.81723800     -1.59002200     -1.46550300
| 35>  H     -1.04082600     -2.18579800     -1.95605700
| 36>  H     -2.68430300     -2.23319100     -1.28494100
| 37>  H     -2.08986400     -0.78378300     -2.15049000
| 38> *
| 39>
| 40>
| 41>                          ****END OF INPUT****

CARTESIAN COORDINATES (ANGSTROEM)
---------------------------------
  O     -0.292535   -0.112036   -0.414899
  C     -1.217722   -1.039947   -0.171191
  C     -2.529967   -0.296215    0.811091
  C     -3.121590    0.647666   -0.065914
  C     -4.310863    0.317640   -0.890716
  Fe     1.539723    0.168028   -0.102058
  Cl     1.892365    2.142156   -1.004513
  C     -2.436171    1.929310   -0.287942
  Cl     2.531135   -1.537524   -1.080175
  Cl     1.867674    0.179700    2.085582
  H     -3.177623   -1.156638    0.989543
  H     -2.929935    2.578725   -1.012367
  H     -2.246053    2.469220    0.646090
  H     -1.419814    1.646412   -0.649099
  H     -5.136316    0.968026   -0.562223
  H     -4.139902    0.561978   -1.946604
  H     -4.628627   -0.721493   -0.791866
  C     -1.869730    0.245677    2.081990
  H     -2.539012    0.949021    2.588157
  H     -1.659284   -0.568294    2.776516
  H     -0.926481    0.749499    1.866049
  C     -0.737080   -2.167965    0.752168
  H     -1.548315   -2.844424    1.034817
  H      0.010112   -2.732284    0.182609
  H     -0.244086   -1.779925    1.643478
  C     -1.817238   -1.590022   -1.465503
  H     -1.040826   -2.185798   -1.956057
  H     -2.684303   -2.233191   -1.284941
  H     -2.089864   -0.783783   -2.150490

ORBITAL ENERGIES
----------------
                 SPIN UP ORBITALS
  NO   OCC          E(Eh)            E(eV)
   0   1.0000    -261.541233     -7116.8988
   1   1.0000    -104.768009     -2850.8825
   2   1.0000    -104.766026     -2850.8285
   3   1.0000    -104.764813     -2850.7955
   4   1.0000     -32.209139      -876.4552
   5   1.0000     -27.685120      -753.3504
   6   1.0000     -27.684766      -753.3408
   7   1.0000     -27.684596      -753.3361
   8   1.0000     -20.545177      -559.0627
   9   1.0000     -11.389298      -309.9186
  10   1.0000     -11.363649      -309.2206
  11   1.0000     -11.304232      -307.6038
  12   1.0000     -11.287945      -307.1606
  13   1.0000     -11.279843      -306.9401
  14   1.0000     -11.252989      -306.2094
  15   1.0000     -11.249578      -306.1166
  16   1.0000     -11.239141      -305.8326
  17   1.0000     -10.494654      -285.5741
  18   1.0000     -10.492622      -285.5188
  19   1.0000     -10.491442      -285.4866
  20   1.0000      -7.961524      -216.6441
  21   1.0000      -7.960710      -216.6219
  22   1.0000      -7.960659      -216.6205
  23   1.0000      -7.959441      -216.5874
  24   1.0000      -7.958738      -216.5683
  25   1.0000      -7.958637      -216.5655
  26   1.0000      -7.958304      -216.5565
  27   1.0000      -7.957537      -216.5356
  28   1.0000      -7.957453      -216.5333
  29   1.0000      -4.564548      -124.2077
  30   1.0000      -3.177163       -86.4550
  31   1.0000      -3.176589       -86.4394
  32   1.0000      -3.176134       -86.4270
  33   1.0000      -1.378504       -37.5110
  34   1.0000      -1.197325       -32.5809
  35   1.0000      -1.082362       -29.4526
  36   1.0000      -1.047042       -28.4915
  37   1.0000      -1.039065       -28.2744
  38   1.0000      -1.033776       -28.1305
  39   1.0000      -1.031710       -28.0743
  40   1.0000      -1.020138       -27.7594
  41   1.0000      -0.972485       -26.4626
  42   1.0000      -0.930741       -25.3268
  43   1.0000      -0.908006       -24.7081
  44   1.0000      -0.894007       -24.3272
  45   1.0000      -0.893989       -24.3267
  46   1.0000      -0.885191       -24.0873
  47   1.0000      -0.884790       -24.0763
  48   1.0000      -0.796952       -21.6862
  49   1.0000      -0.768989       -20.9253
  50   1.0000      -0.709430       -19.3046
  51   1.0000      -0.694698       -18.9037
  52   1.0000      -0.673006       -18.3134
  53   1.0000      -0.654691       -17.8150
  54   1.0000      -0.650072       -17.6894
  55   1.0000      -0.636501       -17.3201
  56   1.0000      -0.607554       -16.5324
  57   1.0000      -0.603253       -16.4153
  58   1.0000      -0.591037       -16.0829
  59   1.0000      -0.583629       -15.8814
  60   1.0000      -0.577914       -15.7258
  61   1.0000      -0.562932       -15.3182
  62   1.0000      -0.556249       -15.1363
  63   1.0000      -0.539639       -14.6843
  64   1.0000      -0.534344       -14.5402
  65   1.0000      -0.520384       -14.1604
  66   1.0000      -0.502666       -13.6782
  67   1.0000      -0.465151       -12.6574
  68   1.0000      -0.456074       -12.4104
  69   1.0000      -0.441434       -12.0120
  70   1.0000      -0.424510       -11.5515
  71   1.0000      -0.418986       -11.4012
  72   1.0000      -0.414786       -11.2869
  73   1.0000      -0.407083       -11.0773
  74   1.0000      -0.405056       -11.0221
  75   1.0000      -0.404369       -11.0034
  76   1.0000      -0.402304       -10.9472
  77   0.0000      -0.001960        -0.0533
  78   0.0000       0.001423         0.0387
  79   0.0000       0.016856         0.4587
  80   0.0000       0.017774         0.4836
  81   0.0000       0.026776         0.7286

                 SPIN DOWN ORBITALS
  NO   OCC          E(Eh)            E(eV)
   0   1.0000    -261.537680     -7116.8021
   1   1.0000    -104.766627     -2850.8448
   2   1.0000    -104.764645     -2850.7909
   3   1.0000    -104.763385     -2850.7566
   4   1.0000     -32.047046      -872.0444
   5   1.0000     -27.525087      -748.9957
   6   1.0000     -27.524969      -748.9925
   7   1.0000     -27.524517      -748.9802
   8   1.0000     -20.539890      -558.9188
   9   1.0000     -11.389170      -309.9151
  10   1.0000     -11.363576      -309.2186
  11   1.0000     -11.304251      -307.6043
  12   1.0000     -11.287826      -307.1574
  13   1.0000     -11.279859      -306.9406
  14   1.0000     -11.253022      -306.2103
  15   1.0000     -11.249475      -306.1138
  16   1.0000     -11.239119      -305.8320
  17   1.0000     -10.493168      -285.5336
  18   1.0000     -10.491144      -285.4785
  19   1.0000     -10.489910      -285.4450
  20   1.0000      -7.959068      -216.5772
  21   1.0000      -7.958492      -216.5616
  22   1.0000      -7.958425      -216.5598
  23   1.0000      -7.957120      -216.5242
  24   1.0000      -7.956439      -216.5057
  25   1.0000      -7.956335      -216.5029
  26   1.0000      -7.955832      -216.4892
  27   1.0000      -7.955198      -216.4719
  28   1.0000      -7.955113      -216.4696
  29   1.0000      -4.122220      -112.1713
  30   1.0000      -2.644060       -71.9485
  31   1.0000      -2.643990       -71.9466
  32   1.0000      -2.643111       -71.9227
  33   1.0000      -1.364936       -37.1418
  34   1.0000      -1.196403       -32.5558
  35   1.0000      -1.079929       -29.3864
  36   1.0000      -1.046050       -28.4645
  37   1.0000      -1.024764       -27.8852
  38   1.0000      -1.019602       -27.7448
  39   1.0000      -1.013166       -27.5697
  40   1.0000      -1.011358       -27.5204
  41   1.0000      -0.971865       -26.4458
  42   1.0000      -0.930442       -25.3186
  43   1.0000      -0.803893       -21.8750
  44   1.0000      -0.775450       -21.1011
  45   1.0000      -0.709978       -19.3195
  46   1.0000      -0.693985       -18.8843
  47   1.0000      -0.673049       -18.3146
  48   1.0000      -0.657577       -17.8936
  49   1.0000      -0.648615       -17.6497
  50   1.0000      -0.635788       -17.3007
  51   1.0000      -0.607528       -16.5317
  52   1.0000      -0.603081       -16.4107
  53   1.0000      -0.590571       -16.0702
  54   1.0000      -0.582983       -15.8638
  55   1.0000      -0.577217       -15.7069
  56   1.0000      -0.562594       -15.3090
  57   1.0000      -0.556332       -15.1386
  58   1.0000      -0.539165       -14.6714
  59   1.0000      -0.533639       -14.5211
  60   1.0000      -0.515454       -14.0262
  61   1.0000      -0.495510       -13.4835
  62   1.0000      -0.463170       -12.6035
  63   1.0000      -0.458520       -12.4770
  64   1.0000      -0.449983       -12.2447
  65   1.0000      -0.429720       -11.6933
  66   1.0000      -0.428139       -11.6503
  67   1.0000      -0.424870       -11.5613
  68   1.0000      -0.424268       -11.5449
  69   1.0000      -0.403896       -10.9906
  70   1.0000      -0.393172       -10.6987
  71   1.0000      -0.390818       -10.6347
  72   0.0000      -0.001998        -0.0544
  73   0.0000       0.001429         0.0389
  74   0.0000       0.016852         0.4586
  75   0.0000       0.017756         0.4832
  76   0.0000       0.026785         0.7289

E(0)                                       ...  -3028.426036436
E(0)                                       ...  -3028.426036436
E(CORR)(strong-pairs)                      ...     -2.873903674
E(CORR)(weak-pairs)                        ...     -0.035174917
E(CORR)(corrected)                         ...     -2.909078590
E(TOT)                                     ...  -3031.335115027
E(CCSD(T))                                 ...  -3031.455016213
FINAL SINGLE POINT ENERGY     -3031.455016212857

DIPOLE MOMENT
-------------
                                X             Y             Z
Electronic contribution:     43.43865       6.38707      -1.70487
Nuclear contribution   :    -49.42564      -6.59989       1.69221
                        -----------------------------------------
Total Dipole Moment    :     -5.98699      -0.21282      -0.01265
                        -----------------------------------------
Magnitude (a.u.)       :      5.99078
Magnitude (Debye)      :     15.22736

Rotational constants in cm-1:     0.020326     0.009965     0.009548
Rotational constants in MHz :   609.348063   298.753138   286.245007

                             ****ORCA TERMINATED NORMALLY****
TOTAL RUN TIME: 0 days 20 hours 41 minutes 2 seconds 777 msec
