                         Program Version 4.1.2  - RELEASE  -
|  1> ! aug-cc-pVTZ aug-cc-pVTZ/C DLPNO-CCSD(T1) TightSCF NormalPNO UNO MiniPrint AutoAux
|  2> %pal nproc 10 end
|  3> %maxcore 20000
|  4> %mdci
|  5>      density none
|  6> end
|  7>
|  8> * xyz 0 6
|  9>  O     -0.26159300     -0.26608200     -0.81960200
| 10>  C     -1.10201000     -1.19993100     -0.65101800
| 11>  C     -2.94658800     -0.17826300      0.49516400
| 12>  C     -2.56634500      0.96165200     -0.13349800
| 13>  C     -3.04731800      1.30509100     -1.51278900
| 14> Fe      1.45375500      0.13680200      0.00521100
| 15> Cl      2.05955900      2.02432100     -0.90337500
| 16>  C     -1.65553800      1.98092700      0.47456800
| 17> Cl      2.64582100     -1.61619000     -0.54692200
| 18> Cl      1.13995200      0.26769400      2.18154000
| 19>  H     -3.68149100     -0.80151900     -0.01218500
| 20>  H     -2.20237900      2.92437600      0.60648700
| 21>  H     -1.24330200      1.68659300      1.43855400
| 22>  H     -0.82405400      2.20106500     -0.20654400
| 23>  H     -3.53834500      2.28642800     -1.49505300
| 24>  H     -2.19911100      1.39778300     -2.20402400
| 25>  H     -3.76070300      0.57738900     -1.90730100
| 26>  C     -2.77175100     -0.45478800      1.96821500
| 27>  H     -3.55397400      0.06724700      2.53499200
| 28>  H     -2.87660800     -1.51956500      2.19187100
| 29>  H     -1.80710900     -0.12046200      2.35715000
| 30>  C     -0.88058700     -2.21879400      0.43004500
| 31>  H     -1.75941800     -2.84161700      0.60058300
| 32>  H     -0.06619500     -2.85954500      0.06059700
| 33>  H     -0.53924400     -1.76763800      1.36102800
| 34>  C     -1.86158800     -1.65641300     -1.86803900
| 35>  H     -1.19429800     -2.36572200     -2.37832300
| 36>  H     -2.78345200     -2.18323600     -1.61785400
| 37>  H     -2.05549600     -0.83569100     -2.55566100
| 38> *
| 39>
| 40>
| 41>                          ****END OF INPUT****

CARTESIAN COORDINATES (ANGSTROEM)
---------------------------------
  O     -0.261593   -0.266082   -0.819602
  C     -1.102010   -1.199931   -0.651018
  C     -2.946588   -0.178263    0.495164
  C     -2.566345    0.961652   -0.133498
  C     -3.047318    1.305091   -1.512789
  Fe     1.453755    0.136802    0.005211
  Cl     2.059559    2.024321   -0.903375
  C     -1.655538    1.980927    0.474568
  Cl     2.645821   -1.616190   -0.546922
  Cl     1.139952    0.267694    2.181540
  H     -3.681491   -0.801519   -0.012185
  H     -2.202379    2.924376    0.606487
  H     -1.243302    1.686593    1.438554
  H     -0.824054    2.201065   -0.206544
  H     -3.538345    2.286428   -1.495053
  H     -2.199111    1.397783   -2.204024
  H     -3.760703    0.577389   -1.907301
  C     -2.771751   -0.454788    1.968215
  H     -3.553974    0.067247    2.534992
  H     -2.876608   -1.519565    2.191871
  H     -1.807109   -0.120462    2.357150
  C     -0.880587   -2.218794    0.430045
  H     -1.759418   -2.841617    0.600583
  H     -0.066195   -2.859545    0.060597
  H     -0.539244   -1.767638    1.361028
  C     -1.861588   -1.656413   -1.868039
  H     -1.194298   -2.365722   -2.378323
  H     -2.783452   -2.183236   -1.617854
  H     -2.055496   -0.835691   -2.555661

ORBITAL ENERGIES
----------------
                 SPIN UP ORBITALS
  NO   OCC          E(Eh)            E(eV)
   0   1.0000    -261.570646     -7117.6991
   1   1.0000    -104.790500     -2851.4945
   2   1.0000    -104.786965     -2851.3983
   3   1.0000    -104.785391     -2851.3555
   4   1.0000     -32.238413      -877.2518
   5   1.0000     -27.714770      -754.1572
   6   1.0000     -27.713825      -754.1315
   7   1.0000     -27.713643      -754.1266
   8   1.0000     -20.604632      -560.6805
   9   1.0000     -11.418582      -310.7154
  10   1.0000     -11.285343      -307.0898
  11   1.0000     -11.273828      -306.7765
  12   1.0000     -11.267952      -306.6166
  13   1.0000     -11.251776      -306.1764
  14   1.0000     -11.250675      -306.1464
  15   1.0000     -11.240973      -305.8824
  16   1.0000     -11.235576      -305.7356
  17   1.0000     -10.517194      -286.1874
  18   1.0000     -10.513639      -286.0907
  19   1.0000     -10.512018      -286.0465
  20   1.0000      -7.984042      -217.2568
  21   1.0000      -7.983255      -217.2354
  22   1.0000      -7.983214      -217.2343
  23   1.0000      -7.980511      -217.1607
  24   1.0000      -7.979734      -217.1396
  25   1.0000      -7.979676      -217.1380
  26   1.0000      -7.978814      -217.1146
  27   1.0000      -7.978140      -217.0962
  28   1.0000      -7.978086      -217.0948
  29   1.0000      -4.593404      -124.9929
  30   1.0000      -3.206432       -87.2515
  31   1.0000      -3.204936       -87.2107
  32   1.0000      -3.204743       -87.2055
  33   1.0000      -1.450165       -39.4610
  34   1.0000      -1.138407       -30.9776
  35   1.0000      -1.096508       -29.8375
  36   1.0000      -1.063007       -28.9259
  37   1.0000      -1.057228       -28.7686
  38   1.0000      -1.054415       -28.6921
  39   1.0000      -1.026318       -27.9275
  40   1.0000      -1.005933       -27.3728
  41   1.0000      -0.966850       -26.3093
  42   1.0000      -0.938200       -25.5297
  43   1.0000      -0.922416       -25.1002
  44   1.0000      -0.922342       -25.0982
  45   1.0000      -0.912123       -24.8201
  46   1.0000      -0.911416       -24.8009
  47   1.0000      -0.904459       -24.6116
  48   1.0000      -0.807141       -21.9634
  49   1.0000      -0.738722       -20.1016
  50   1.0000      -0.704355       -19.1665
  51   1.0000      -0.695052       -18.9133
  52   1.0000      -0.684871       -18.6363
  53   1.0000      -0.662703       -18.0331
  54   1.0000      -0.628969       -17.1151
  55   1.0000      -0.621679       -16.9168
  56   1.0000      -0.604956       -16.4617
  57   1.0000      -0.598005       -16.2725
  58   1.0000      -0.584251       -15.8983
  59   1.0000      -0.575850       -15.6697
  60   1.0000      -0.561804       -15.2875
  61   1.0000      -0.555938       -15.1279
  62   1.0000      -0.548382       -14.9222
  63   1.0000      -0.546983       -14.8842
  64   1.0000      -0.535070       -14.5600
  65   1.0000      -0.529561       -14.4101
  66   1.0000      -0.502011       -13.6604
  67   1.0000      -0.496889       -13.5210
  68   1.0000      -0.473819       -12.8933
  69   1.0000      -0.471734       -12.8365
  70   1.0000      -0.442810       -12.0495
  71   1.0000      -0.437477       -11.9043
  72   1.0000      -0.435683       -11.8555
  73   1.0000      -0.426967       -11.6184
  74   1.0000      -0.425915       -11.5897
  75   1.0000      -0.424745       -11.5579
  76   1.0000      -0.365615        -9.9489
  77   0.0000       0.012285         0.3343
  78   0.0000       0.022807         0.6206
  79   0.0000       0.023629         0.6430
  80   0.0000       0.030309         0.8247
  81   0.0000       0.038864         1.0575

                 SPIN DOWN ORBITALS
  NO   OCC          E(Eh)            E(eV)
   0   1.0000    -261.567077     -7117.6020
   1   1.0000    -104.789047     -2851.4549
   2   1.0000    -104.785432     -2851.3566
   3   1.0000    -104.783867     -2851.3140
   4   1.0000     -32.076391      -872.8430
   5   1.0000     -27.554301      -749.7906
   6   1.0000     -27.554261      -749.7896
   7   1.0000     -27.554090      -749.7849
   8   1.0000     -20.600814      -560.5766
   9   1.0000     -11.418494      -310.7130
  10   1.0000     -11.285302      -307.0887
  11   1.0000     -11.273716      -306.7734
  12   1.0000     -11.267941      -306.6163
  13   1.0000     -11.251742      -306.1755
  14   1.0000     -11.250680      -306.1466
  15   1.0000     -11.240975      -305.8825
  16   1.0000     -11.235599      -305.7362
  17   1.0000     -10.515639      -286.1451
  18   1.0000     -10.512002      -286.0461
  19   1.0000     -10.510397      -286.0024
  20   1.0000      -7.981543      -217.1888
  21   1.0000      -7.980868      -217.1705
  22   1.0000      -7.980822      -217.1692
  23   1.0000      -7.977892      -217.0895
  24   1.0000      -7.977209      -217.0709
  25   1.0000      -7.977120      -217.0685
  26   1.0000      -7.976381      -217.0484
  27   1.0000      -7.975532      -217.0253
  28   1.0000      -7.975448      -217.0230
  29   1.0000      -4.151217      -112.9604
  30   1.0000      -2.672803       -72.7307
  31   1.0000      -2.672792       -72.7304
  32   1.0000      -2.672213       -72.7146
  33   1.0000      -1.440647       -39.2020
  34   1.0000      -1.137991       -30.9663
  35   1.0000      -1.093975       -29.7686
  36   1.0000      -1.047746       -28.5106
  37   1.0000      -1.035334       -28.1729
  38   1.0000      -1.032199       -28.0876
  39   1.0000      -1.025816       -27.9139
  40   1.0000      -1.005177       -27.3523
  41   1.0000      -0.966745       -26.3065
  42   1.0000      -0.904804       -24.6210
  43   1.0000      -0.820341       -22.3226
  44   1.0000      -0.738806       -20.1039
  45   1.0000      -0.706907       -19.2359
  46   1.0000      -0.694164       -18.8892
  47   1.0000      -0.684043       -18.6138
  48   1.0000      -0.662582       -18.0298
  49   1.0000      -0.628909       -17.1135
  50   1.0000      -0.621165       -16.9028
  51   1.0000      -0.604542       -16.4504
  52   1.0000      -0.597921       -16.2703
  53   1.0000      -0.584000       -15.8914
  54   1.0000      -0.574697       -15.6383
  55   1.0000      -0.561264       -15.2728
  56   1.0000      -0.555795       -15.1240
  57   1.0000      -0.547220       -14.8906
  58   1.0000      -0.545886       -14.8543
  59   1.0000      -0.532942       -14.5021
  60   1.0000      -0.519776       -14.1438
  61   1.0000      -0.501908       -13.6576
  62   1.0000      -0.497826       -13.5465
  63   1.0000      -0.481414       -13.1000
  64   1.0000      -0.479097       -13.0369
  65   1.0000      -0.450599       -12.2614
  66   1.0000      -0.447549       -12.1784
  67   1.0000      -0.444812       -12.1039
  68   1.0000      -0.428900       -11.6710
  69   1.0000      -0.425752       -11.5853
  70   1.0000      -0.410537       -11.1713
  71   1.0000      -0.364552        -9.9200
  72   0.0000       0.012271         0.3339
  73   0.0000       0.022782         0.6199
  74   0.0000       0.023604         0.6423
  75   0.0000       0.030218         0.8223
  76   0.0000       0.038683         1.0526

E(0)                                       ...  -3028.450462280
E(0)                                       ...  -3028.450462280
E(CORR)(strong-pairs)                      ...     -2.871248951
E(CORR)(weak-pairs)                        ...     -0.035939808
E(CORR)(corrected)                         ...     -2.907188759
E(TOT)                                     ...  -3031.357651039
E(CCSD(T))                                 ...  -3031.476594223
FINAL SINGLE POINT ENERGY     -3031.476594222747

DIPOLE MOMENT
-------------
                                X             Y             Z
Electronic contribution:     42.60263       4.33032       1.60772
Nuclear contribution   :    -46.26295      -5.44258      -2.22065
                        -----------------------------------------
Total Dipole Moment    :     -3.66033      -1.11226      -0.61293
                        -----------------------------------------
Magnitude (a.u.)       :      3.87438
Magnitude (Debye)      :      9.84789

Rotational constants in cm-1:     0.019016     0.011012     0.010364
Rotational constants in MHz :   570.091555   330.119167   310.708762

                             ****ORCA TERMINATED NORMALLY****
TOTAL RUN TIME: 0 days 19 hours 1 minutes 52 seconds 709 msec
