                         Program Version 4.1.2  - RELEASE  -
|  1> ! aug-cc-pVTZ aug-cc-pVTZ/C DLPNO-CCSD(T1) TightSCF NormalPNO UNO MiniPrint AutoAux
|  2> %pal nproc 10 end
|  3> %maxcore 20000
|  4> %mdci
|  5>      density none
|  6> end
|  7>
|  8> * xyz 0 6
|  9>  O     -0.33905900     -0.13192000     -0.55511700
| 10>  C     -1.29872300     -1.05136500     -0.47478000
| 11>  C     -2.99120600     -0.05907600     -0.08637200
| 12>  C     -2.20170900      1.08356800     -0.21500800
| 13>  C     -2.03060100      1.76759600     -1.52502900
| 14> Fe      1.42452400      0.04941700      0.04294200
| 15> Cl      1.95070700      2.03386800     -0.77012500
| 16>  C     -1.59088100      1.75949200      0.96247000
| 17> Cl      2.49578500     -1.69677100     -0.76112600
| 18> Cl      1.36140800      0.04243000      2.25954700
| 19>  H     -3.57239300     -0.31814200     -0.96888100
| 20>  H     -2.36034900      2.42401800      1.38596600
| 21>  H     -1.29074800      1.06526300      1.74845800
| 22>  H     -0.73039600      2.36725200      0.67676100
| 23>  H     -2.57138700      2.72403300     -1.45895900
| 24>  H     -0.97681700      2.00017600     -1.70338500
| 25>  H     -2.44562800      1.20198400     -2.36098000
| 26>  C     -3.63277500     -0.47089100      1.21996600
| 27>  H     -4.52900700      0.13684400      1.39777400
| 28>  H     -3.95245600     -1.51577100      1.18718000
| 29>  H     -2.97254800     -0.34544300      2.08031400
| 30>  C     -1.17617400     -2.01597900      0.68046200
| 31>  H     -2.02550100     -2.69691300      0.75680800
| 32>  H     -0.27501200     -2.60960900      0.47144100
| 33>  H     -1.00618600     -1.50283200      1.62762600
| 34>  C     -1.63146800     -1.68809400     -1.80734900
| 35>  H     -0.74582600     -2.27077600     -2.09360200
| 36>  H     -2.49374600     -2.35706400     -1.74695400
| 37>  H     -1.79024800     -0.93597200     -2.58233000
| 38> *
| 39>
| 40>
| 41>                          ****END OF INPUT****

CARTESIAN COORDINATES (ANGSTROEM)
---------------------------------
  O     -0.339059   -0.131920   -0.555117
  C     -1.298723   -1.051365   -0.474780
  C     -2.991206   -0.059076   -0.086372
  C     -2.201709    1.083568   -0.215008
  C     -2.030601    1.767596   -1.525029
  Fe     1.424524    0.049417    0.042942
  Cl     1.950707    2.033868   -0.770125
  C     -1.590881    1.759492    0.962470
  Cl     2.495785   -1.696771   -0.761126
  Cl     1.361408    0.042430    2.259547
  H     -3.572393   -0.318142   -0.968881
  H     -2.360349    2.424018    1.385966
  H     -1.290748    1.065263    1.748458
  H     -0.730396    2.367252    0.676761
  H     -2.571387    2.724033   -1.458959
  H     -0.976817    2.000176   -1.703385
  H     -2.445628    1.201984   -2.360980
  C     -3.632775   -0.470891    1.219966
  H     -4.529007    0.136844    1.397774
  H     -3.952456   -1.515771    1.187180
  H     -2.972548   -0.345443    2.080314
  C     -1.176174   -2.015979    0.680462
  H     -2.025501   -2.696913    0.756808
  H     -0.275012   -2.609609    0.471441
  H     -1.006186   -1.502832    1.627626
  C     -1.631468   -1.688094   -1.807349
  H     -0.745826   -2.270776   -2.093602
  H     -2.493746   -2.357064   -1.746954
  H     -1.790248   -0.935972   -2.582330

ORBITAL ENERGIES
----------------
                 SPIN UP ORBITALS
  NO   OCC          E(Eh)            E(eV)
   0   1.0000    -261.552516     -7117.2058
   1   1.0000    -104.777307     -2851.1355
   2   1.0000    -104.776971     -2851.1263
   3   1.0000    -104.775526     -2851.0870
   4   1.0000     -32.220404      -876.7618
   5   1.0000     -27.696377      -753.6567
   6   1.0000     -27.696080      -753.6487
   7   1.0000     -27.695843      -753.6422
   8   1.0000     -20.556031      -559.3580
   9   1.0000     -11.390735      -309.9576
  10   1.0000     -11.361621      -309.1654
  11   1.0000     -11.276753      -306.8560
  12   1.0000     -11.268098      -306.6205
  13   1.0000     -11.263659      -306.4997
  14   1.0000     -11.260929      -306.4255
  15   1.0000     -11.256650      -306.3090
  16   1.0000     -11.251758      -306.1759
  17   1.0000     -10.503910      -285.8259
  18   1.0000     -10.503480      -285.8142
  19   1.0000     -10.502069      -285.7758
  20   1.0000      -7.970797      -216.8964
  21   1.0000      -7.970297      -216.8828
  22   1.0000      -7.969957      -216.8736
  23   1.0000      -7.969909      -216.8723
  24   1.0000      -7.969578      -216.8633
  25   1.0000      -7.969488      -216.8608
  26   1.0000      -7.968902      -216.8449
  27   1.0000      -7.968175      -216.8251
  28   1.0000      -7.968087      -216.8227
  29   1.0000      -4.575857      -124.5154
  30   1.0000      -3.188581       -86.7657
  31   1.0000      -3.187889       -86.7469
  32   1.0000      -3.187359       -86.7325
  33   1.0000      -1.400560       -38.1112
  34   1.0000      -1.173046       -31.9202
  35   1.0000      -1.087042       -29.5799
  36   1.0000      -1.049261       -28.5518
  37   1.0000      -1.043778       -28.4026
  38   1.0000      -1.042084       -28.3565
  39   1.0000      -1.040586       -28.3158
  40   1.0000      -1.000657       -27.2293
  41   1.0000      -0.984841       -26.7989
  42   1.0000      -0.932957       -25.3871
  43   1.0000      -0.916641       -24.9431
  44   1.0000      -0.905478       -24.6393
  45   1.0000      -0.905420       -24.6377
  46   1.0000      -0.896504       -24.3951
  47   1.0000      -0.896144       -24.3853
  48   1.0000      -0.786527       -21.4025
  49   1.0000      -0.762782       -20.7563
  50   1.0000      -0.696352       -18.9487
  51   1.0000      -0.694122       -18.8880
  52   1.0000      -0.677397       -18.4329
  53   1.0000      -0.656180       -17.8556
  54   1.0000      -0.644550       -17.5391
  55   1.0000      -0.624051       -16.9813
  56   1.0000      -0.600885       -16.3509
  57   1.0000      -0.593185       -16.1414
  58   1.0000      -0.588346       -16.0097
  59   1.0000      -0.582837       -15.8598
  60   1.0000      -0.573720       -15.6117
  61   1.0000      -0.565259       -15.3815
  62   1.0000      -0.556020       -15.1301
  63   1.0000      -0.549478       -14.9520
  64   1.0000      -0.539453       -14.6793
  65   1.0000      -0.529457       -14.4073
  66   1.0000      -0.511588       -13.9210
  67   1.0000      -0.479909       -13.0590
  68   1.0000      -0.464429       -12.6378
  69   1.0000      -0.453103       -12.3296
  70   1.0000      -0.431379       -11.7384
  71   1.0000      -0.427200       -11.6247
  72   1.0000      -0.424826       -11.5601
  73   1.0000      -0.417615       -11.3639
  74   1.0000      -0.415620       -11.3096
  75   1.0000      -0.414490       -11.2789
  76   1.0000      -0.384417       -10.4605
  77   0.0000       0.009275         0.2524
  78   0.0000       0.020095         0.5468
  79   0.0000       0.022103         0.6015
  80   0.0000       0.030215         0.8222
  81   0.0000       0.037403         1.0178

                 SPIN DOWN ORBITALS
  NO   OCC          E(Eh)            E(eV)
   0   1.0000    -261.548970     -7117.1093
   1   1.0000    -104.775923     -2851.0978
   2   1.0000    -104.775619     -2851.0895
   3   1.0000    -104.774089     -2851.0479
   4   1.0000     -32.058364      -872.3524
   5   1.0000     -27.536404      -749.3036
   6   1.0000     -27.536264      -749.2998
   7   1.0000     -27.535834      -749.2881
   8   1.0000     -20.550712      -559.2133
   9   1.0000     -11.390696      -309.9566
  10   1.0000     -11.361599      -309.1648
  11   1.0000     -11.276409      -306.8467
  12   1.0000     -11.268089      -306.6203
  13   1.0000     -11.263681      -306.5003
  14   1.0000     -11.260965      -306.4264
  15   1.0000     -11.256551      -306.3063
  16   1.0000     -11.251719      -306.1748
  17   1.0000     -10.502423      -285.7855
  18   1.0000     -10.502033      -285.7748
  19   1.0000     -10.500531      -285.7340
  20   1.0000      -7.968305      -216.8286
  21   1.0000      -7.968001      -216.8203
  22   1.0000      -7.967758      -216.8137
  23   1.0000      -7.967685      -216.8117
  24   1.0000      -7.967342      -216.8024
  25   1.0000      -7.967247      -216.7998
  26   1.0000      -7.966469      -216.7786
  27   1.0000      -7.965785      -216.7600
  28   1.0000      -7.965703      -216.7578
  29   1.0000      -4.133609      -112.4812
  30   1.0000      -2.655362       -72.2561
  31   1.0000      -2.655290       -72.2541
  32   1.0000      -2.654747       -72.2393
  33   1.0000      -1.386955       -37.7410
  34   1.0000      -1.171833       -31.8872
  35   1.0000      -1.084328       -29.5061
  36   1.0000      -1.039713       -28.2920
  37   1.0000      -1.034773       -28.1576
  38   1.0000      -1.023485       -27.8504
  39   1.0000      -1.021893       -27.8071
  40   1.0000      -1.000237       -27.2178
  41   1.0000      -0.984343       -26.7853
  42   1.0000      -0.929545       -25.2942
  43   1.0000      -0.799289       -21.7498
  44   1.0000      -0.763774       -20.7833
  45   1.0000      -0.695942       -18.9376
  46   1.0000      -0.694236       -18.8911
  47   1.0000      -0.679400       -18.4874
  48   1.0000      -0.655698       -17.8425
  49   1.0000      -0.644080       -17.5263
  50   1.0000      -0.624073       -16.9819
  51   1.0000      -0.599947       -16.3254
  52   1.0000      -0.592961       -16.1353
  53   1.0000      -0.588241       -16.0068
  54   1.0000      -0.582523       -15.8513
  55   1.0000      -0.573530       -15.6065
  56   1.0000      -0.565251       -15.3813
  57   1.0000      -0.555382       -15.1127
  58   1.0000      -0.548911       -14.9366
  59   1.0000      -0.534285       -14.5386
  60   1.0000      -0.528741       -14.3878
  61   1.0000      -0.505176       -13.7466
  62   1.0000      -0.476633       -12.9698
  63   1.0000      -0.468079       -12.7371
  64   1.0000      -0.463739       -12.6190
  65   1.0000      -0.438934       -11.9440
  66   1.0000      -0.435904       -11.8616
  67   1.0000      -0.434388       -11.8203
  68   1.0000      -0.423230       -11.5167
  69   1.0000      -0.413968       -11.2646
  70   1.0000      -0.401517       -10.9258
  71   1.0000      -0.381675       -10.3859
  72   0.0000       0.009276         0.2524
  73   0.0000       0.020046         0.5455
  74   0.0000       0.022084         0.6009
  75   0.0000       0.030249         0.8231
  76   0.0000       0.037107         1.0097

E(0)                                       ...  -3028.421250645
E(0)                                       ...  -3028.421250645
E(CORR)(strong-pairs)                      ...     -2.872553058
E(CORR)(weak-pairs)                        ...     -0.035404363
E(CORR)(corrected)                         ...     -2.907957421
E(TOT)                                     ...  -3031.329208066
E(CCSD(T))                                 ...  -3031.448699966
FINAL SINGLE POINT ENERGY     -3031.448699966427

DIPOLE MOMENT
-------------
                                X             Y             Z
Electronic contribution:     41.22919       3.19564       2.21777
Nuclear contribution   :    -45.77049      -3.24428      -2.69572
                        -----------------------------------------
Total Dipole Moment    :     -4.54130      -0.04864      -0.47795
                        -----------------------------------------
Magnitude (a.u.)       :      4.56664
Magnitude (Debye)      :     11.60748

Rotational constants in cm-1:     0.019408     0.011451     0.010600
Rotational constants in MHz :   581.841966   343.295336   317.789915

                             ****ORCA TERMINATED NORMALLY****
TOTAL RUN TIME: 0 days 21 hours 9 minutes 22 seconds 24 msec
