                         Program Version 4.1.2  - RELEASE  -
|  1> ! aug-cc-pVTZ aug-cc-pVTZ/C DLPNO-CCSD(T1) TightSCF NormalPNO UNO MiniPrint AutoAux
|  2> %pal nproc 10 end
|  3> %maxcore 20000
|  4> %mdci
|  5>      density none
|  6> end
|  7>
|  8> * xyz 0 6
|  9>  O     -0.29587700     -0.09700100     -0.41642700
| 10>  C     -1.26393100     -1.03169100     -0.20414500
| 11>  C     -2.46994300     -0.39408400      0.72402100
| 12>  C     -3.06691100      0.67494700     -0.04840900
| 13>  C     -4.30306900      0.46771900     -0.83572700
| 14> Fe      1.52149000      0.17023300     -0.09147400
| 15> Cl      1.83005400      2.21547500     -0.85872800
| 16>  C     -2.31495800      1.91098400     -0.18901900
| 17> Cl      2.56706400     -1.44057900     -1.17025900
| 18> Cl      1.84307200      0.05775200      2.09953300
| 19>  H     -3.18125400     -1.21729100      0.83804100
| 20>  H     -2.76700900      2.65989800     -0.83953300
| 21>  H     -2.00529300      2.34258300      0.76850500
| 22>  H     -1.33196300      1.53826200     -0.60235100
| 23>  H     -5.10548100      1.03075200     -0.33061800
| 24>  H     -4.21741700      0.90257800     -1.83845400
| 25>  H     -4.60593000     -0.57886600     -0.89335300
| 26>  C     -1.89596600      0.04395300      2.08569200
| 27>  H     -2.59788400      0.70093700      2.60856000
| 28>  H     -1.72966300     -0.83127500      2.71503000
| 29>  H     -0.93985500      0.55660100      1.97083500
| 30>  C     -0.73320600     -2.23460000      0.60184500
| 31>  H     -1.53264500     -2.93920100      0.85152500
| 32>  H      0.00338800     -2.74273700     -0.02816600
| 33>  H     -0.22486900     -1.91466700      1.51204700
| 34>  C     -1.82252400     -1.50784000     -1.55457200
| 35>  H     -1.02336300     -2.03526500     -2.08238600
| 36>  H     -2.67093800     -2.19106900     -1.43589300
| 37>  H     -2.12172200     -0.66263400     -2.18143700
| 38> *
| 39>
| 40>
| 41>                          ****END OF INPUT****

CARTESIAN COORDINATES (ANGSTROEM)
---------------------------------
  O     -0.295877   -0.097001   -0.416427
  C     -1.263931   -1.031691   -0.204145
  C     -2.469943   -0.394084    0.724021
  C     -3.066911    0.674947   -0.048409
  C     -4.303069    0.467719   -0.835727
  Fe     1.521490    0.170233   -0.091474
  Cl     1.830054    2.215475   -0.858728
  C     -2.314958    1.910984   -0.189019
  Cl     2.567064   -1.440579   -1.170259
  Cl     1.843072    0.057752    2.099533
  H     -3.181254   -1.217291    0.838041
  H     -2.767009    2.659898   -0.839533
  H     -2.005293    2.342583    0.768505
  H     -1.331963    1.538262   -0.602351
  H     -5.105481    1.030752   -0.330618
  H     -4.217417    0.902578   -1.838454
  H     -4.605930   -0.578866   -0.893353
  C     -1.895966    0.043953    2.085692
  H     -2.597884    0.700937    2.608560
  H     -1.729663   -0.831275    2.715030
  H     -0.939855    0.556601    1.970835
  C     -0.733206   -2.234600    0.601845
  H     -1.532645   -2.939201    0.851525
  H      0.003388   -2.742737   -0.028166
  H     -0.224869   -1.914667    1.512047
  C     -1.822524   -1.507840   -1.554572
  H     -1.023363   -2.035265   -2.082386
  H     -2.670938   -2.191069   -1.435893
  H     -2.121722   -0.662634   -2.181437

ORBITAL ENERGIES
----------------
                 SPIN UP ORBITALS
  NO   OCC          E(Eh)            E(eV)
   0   1.0000    -261.535336     -7116.7383
   1   1.0000    -104.764327     -2850.7823
   2   1.0000    -104.762951     -2850.7448
   3   1.0000    -104.760655     -2850.6823
   4   1.0000     -32.203258      -876.2952
   5   1.0000     -27.679115      -753.1870
   6   1.0000     -27.678979      -753.1833
   7   1.0000     -27.678753      -753.1771
   8   1.0000     -20.532951      -558.7300
   9   1.0000     -11.410317      -310.4905
  10   1.0000     -11.341193      -308.6096
  11   1.0000     -11.314609      -307.8862
  12   1.0000     -11.293883      -307.3222
  13   1.0000     -11.285219      -307.0864
  14   1.0000     -11.256655      -306.3092
  15   1.0000     -11.244280      -305.9724
  16   1.0000     -11.231271      -305.6184
  17   1.0000     -10.490951      -285.4733
  18   1.0000     -10.489531      -285.4346
  19   1.0000     -10.487268      -285.3731
  20   1.0000      -7.957827      -216.5435
  21   1.0000      -7.957002      -216.5210
  22   1.0000      -7.956945      -216.5195
  23   1.0000      -7.956358      -216.5035
  24   1.0000      -7.955636      -216.4839
  25   1.0000      -7.955531      -216.4810
  26   1.0000      -7.954117      -216.4425
  27   1.0000      -7.953367      -216.4221
  28   1.0000      -7.953280      -216.4198
  29   1.0000      -4.558747      -124.0498
  30   1.0000      -3.171253       -86.2942
  31   1.0000      -3.170901       -86.2846
  32   1.0000      -3.170403       -86.2711
  33   1.0000      -1.360710       -37.0268
  34   1.0000      -1.209003       -32.8986
  35   1.0000      -1.091933       -29.7130
  36   1.0000      -1.048723       -28.5372
  37   1.0000      -1.034936       -28.1620
  38   1.0000      -1.029906       -28.0252
  39   1.0000      -1.027543       -27.9609
  40   1.0000      -1.025628       -27.9088
  41   1.0000      -0.965734       -26.2790
  42   1.0000      -0.932788       -25.3824
  43   1.0000      -0.901220       -24.5234
  44   1.0000      -0.888371       -24.1738
  45   1.0000      -0.888280       -24.1713
  46   1.0000      -0.879967       -23.9451
  47   1.0000      -0.879641       -23.9362
  48   1.0000      -0.810308       -22.0496
  49   1.0000      -0.768308       -20.9067
  50   1.0000      -0.719109       -19.5680
  51   1.0000      -0.698810       -19.0156
  52   1.0000      -0.680546       -18.5186
  53   1.0000      -0.650814       -17.7096
  54   1.0000      -0.644552       -17.5392
  55   1.0000      -0.638407       -17.3719
  56   1.0000      -0.614899       -16.7322
  57   1.0000      -0.602313       -16.3898
  58   1.0000      -0.594435       -16.1754
  59   1.0000      -0.581794       -15.8314
  60   1.0000      -0.575894       -15.6709
  61   1.0000      -0.561938       -15.2911
  62   1.0000      -0.551221       -14.9995
  63   1.0000      -0.538959       -14.6658
  64   1.0000      -0.528301       -14.3758
  65   1.0000      -0.516863       -14.0646
  66   1.0000      -0.496787       -13.5183
  67   1.0000      -0.460828       -12.5398
  68   1.0000      -0.456571       -12.4239
  69   1.0000      -0.435510       -11.8508
  70   1.0000      -0.428879       -11.6704
  71   1.0000      -0.415157       -11.2970
  72   1.0000      -0.410932       -11.1820
  73   1.0000      -0.406461       -11.0604
  74   1.0000      -0.402681       -10.9575
  75   1.0000      -0.401741       -10.9319
  76   1.0000      -0.400573       -10.9002
  77   0.0000      -0.011018        -0.2998
  78   0.0000      -0.001331        -0.0362
  79   0.0000       0.015666         0.4263
  80   0.0000       0.016186         0.4404
  81   0.0000       0.025851         0.7035

                 SPIN DOWN ORBITALS
  NO   OCC          E(Eh)            E(eV)
   0   1.0000    -261.531788     -7116.6418
   1   1.0000    -104.762973     -2850.7454
   2   1.0000    -104.761611     -2850.7084
   3   1.0000    -104.759246     -2850.6440
   4   1.0000     -32.041176      -871.8847
   5   1.0000     -27.519264      -748.8372
   6   1.0000     -27.519102      -748.8328
   7   1.0000     -27.518588      -748.8189
   8   1.0000     -20.527136      -558.5718
   9   1.0000     -11.410296      -310.4899
  10   1.0000     -11.341022      -308.6049
  11   1.0000     -11.314614      -307.8863
  12   1.0000     -11.293770      -307.3191
  13   1.0000     -11.285217      -307.0864
  14   1.0000     -11.256682      -306.3099
  15   1.0000     -11.244185      -305.9698
  16   1.0000     -11.231235      -305.6175
  17   1.0000     -10.489494      -285.4336
  18   1.0000     -10.488092      -285.3955
  19   1.0000     -10.485756      -285.3319
  20   1.0000      -7.955388      -216.4771
  21   1.0000      -7.954849      -216.4624
  22   1.0000      -7.954780      -216.4606
  23   1.0000      -7.954059      -216.4409
  24   1.0000      -7.953434      -216.4239
  25   1.0000      -7.953326      -216.4210
  26   1.0000      -7.951699      -216.3767
  27   1.0000      -7.951046      -216.3590
  28   1.0000      -7.950966      -216.3568
  29   1.0000      -4.116477      -112.0150
  30   1.0000      -2.638400       -71.7945
  31   1.0000      -2.638296       -71.7917
  32   1.0000      -2.637364       -71.7663
  33   1.0000      -1.345916       -36.6242
  34   1.0000      -1.207978       -32.8707
  35   1.0000      -1.089447       -29.6454
  36   1.0000      -1.047995       -28.5174
  37   1.0000      -1.024885       -27.8885
  38   1.0000      -1.020422       -27.7671
  39   1.0000      -1.009746       -27.4766
  40   1.0000      -1.007485       -27.4151
  41   1.0000      -0.965135       -26.2627
  42   1.0000      -0.932596       -25.3772
  43   1.0000      -0.814819       -22.1724
  44   1.0000      -0.775802       -21.1107
  45   1.0000      -0.719868       -19.5886
  46   1.0000      -0.698511       -19.0074
  47   1.0000      -0.680711       -18.5231
  48   1.0000      -0.650484       -17.7006
  49   1.0000      -0.646624       -17.5955
  50   1.0000      -0.637218       -17.3396
  51   1.0000      -0.614888       -16.7319
  52   1.0000      -0.602215       -16.3871
  53   1.0000      -0.594372       -16.1737
  54   1.0000      -0.580696       -15.8015
  55   1.0000      -0.574476       -15.6323
  56   1.0000      -0.561464       -15.2782
  57   1.0000      -0.551306       -15.0018
  58   1.0000      -0.539003       -14.6670
  59   1.0000      -0.526256       -14.3201
  60   1.0000      -0.512554       -13.9473
  61   1.0000      -0.491046       -13.3620
  62   1.0000      -0.458465       -12.4755
  63   1.0000      -0.456219       -12.4144
  64   1.0000      -0.441865       -12.0238
  65   1.0000      -0.437297       -11.8994
  66   1.0000      -0.425479       -11.5779
  67   1.0000      -0.422098       -11.4859
  68   1.0000      -0.421296       -11.4640
  69   1.0000      -0.400088       -10.8869
  70   1.0000      -0.393375       -10.7043
  71   1.0000      -0.387676       -10.5492
  72   0.0000      -0.011150        -0.3034
  73   0.0000      -0.001334        -0.0363
  74   0.0000       0.015658         0.4261
  75   0.0000       0.016174         0.4401
  76   0.0000       0.025867         0.7039

E(0)                                       ...  -3028.425082948
E(0)                                       ...  -3028.425082948
E(CORR)(strong-pairs)                      ...     -2.872296804
E(CORR)(weak-pairs)                        ...     -0.035265900
E(CORR)(corrected)                         ...     -2.907562704
E(TOT)                                     ...  -3031.332645652
E(CCSD(T))                                 ...  -3031.451228413
FINAL SINGLE POINT ENERGY     -3031.451228412763

DIPOLE MOMENT
-------------
                                X             Y             Z
Electronic contribution:     42.60607       6.97013      -1.22309
Nuclear contribution   :    -48.95248      -6.96196       1.22834
                        -----------------------------------------
Total Dipole Moment    :     -6.34641       0.00817       0.00525
                        -----------------------------------------
Magnitude (a.u.)       :      6.34641
Magnitude (Debye)      :     16.13130

Rotational constants in cm-1:     0.020372     0.010116     0.009662
Rotational constants in MHz :   610.734535   303.279398   289.659633

                             ****ORCA TERMINATED NORMALLY****
TOTAL RUN TIME: 0 days 20 hours 10 minutes 19 seconds 654 msec
