                         Program Version 4.1.2  - RELEASE  -
|  1> ! aug-cc-pVTZ aug-cc-pVTZ/C DLPNO-CCSD(T1) TightSCF NormalPNO UNO MiniPrint AutoAux
|  2> %pal nproc 10 end
|  3> %maxcore 20000
|  4> %mdci
|  5>      density none
|  6> end
|  7>
|  8> * xyz 0 6
|  9>  O     -0.26853900     -0.24765000     -0.76900000
| 10>  C     -1.14869100     -1.16358500     -0.60078100
| 11>  C     -2.79795800     -0.30161500      0.57264500
| 12>  C     -2.66366900      0.90311500     -0.06076200
| 13>  C     -3.36506700      1.20117900     -1.35026100
| 14> Fe      1.45922500      0.14927800     -0.02536200
| 15> Cl      1.99381600      2.06205600     -0.94099700
| 16>  C     -1.75787200      1.98003600      0.43101800
| 17> Cl      2.68030800     -1.57239500     -0.61442700
| 18> Cl      1.21419400      0.29393400      2.16303900
| 19>  H     -3.54624800     -0.97959700      0.16511600
| 20>  H     -2.27275700      2.94809500      0.41975700
| 21>  H     -1.35410100      1.79940600      1.42629500
| 22>  H     -0.91192000      2.07252900     -0.26600300
| 23>  H     -3.99825200      2.08800100     -1.21715300
| 24>  H     -2.64180700      1.45553000     -2.13648000
| 25>  H     -3.99889000      0.37943100     -1.68995300
| 26>  C     -2.47516300     -0.50839100      2.03745300
| 27>  H     -3.19657100      0.04830000      2.64843200
| 28>  H     -2.56325000     -1.56029200      2.31666500
| 29>  H     -1.47513500     -0.16750100      2.31199300
| 30>  C     -0.84032000     -2.27858400      0.37063900
| 31>  H     -1.70356300     -2.91699900      0.56576600
| 32>  H     -0.06518200     -2.88110400     -0.12331100
| 33>  H     -0.41730300     -1.90957600      1.30426200
| 34>  C     -1.89092300     -1.57991800     -1.85175400
| 35>  H     -1.20500600     -2.24356500     -2.39495600
| 36>  H     -2.80469700     -2.13808500     -1.63975700
| 37>  H     -2.10027600     -0.72915700     -2.49791300
| 38> *
| 39>
| 40>
| 41>                          ****END OF INPUT****

CARTESIAN COORDINATES (ANGSTROEM)
---------------------------------
  O     -0.268539   -0.247650   -0.769000
  C     -1.148691   -1.163585   -0.600781
  C     -2.797958   -0.301615    0.572645
  C     -2.663669    0.903115   -0.060762
  C     -3.365067    1.201179   -1.350261
  Fe     1.459225    0.149278   -0.025362
  Cl     1.993816    2.062056   -0.940997
  C     -1.757872    1.980036    0.431018
  Cl     2.680308   -1.572395   -0.614427
  Cl     1.214194    0.293934    2.163039
  H     -3.546248   -0.979597    0.165116
  H     -2.272757    2.948095    0.419757
  H     -1.354101    1.799406    1.426295
  H     -0.911920    2.072529   -0.266003
  H     -3.998252    2.088001   -1.217153
  H     -2.641807    1.455530   -2.136480
  H     -3.998890    0.379431   -1.689953
  C     -2.475163   -0.508391    2.037453
  H     -3.196571    0.048300    2.648432
  H     -2.563250   -1.560292    2.316665
  H     -1.475135   -0.167501    2.311993
  C     -0.840320   -2.278584    0.370639
  H     -1.703563   -2.916999    0.565766
  H     -0.065182   -2.881104   -0.123311
  H     -0.417303   -1.909576    1.304262
  C     -1.890923   -1.579918   -1.851754
  H     -1.205006   -2.243565   -2.394956
  H     -2.804697   -2.138085   -1.639757
  H     -2.100276   -0.729157   -2.497913

ORBITAL ENERGIES
----------------
                 SPIN UP ORBITALS
  NO   OCC          E(Eh)            E(eV)
   0   1.0000    -261.563562     -7117.5064
   1   1.0000    -104.786075     -2851.3741
   2   1.0000    -104.781981     -2851.2627
   3   1.0000    -104.780639     -2851.2261
   4   1.0000     -32.231396      -877.0609
   5   1.0000     -27.707635      -753.9631
   6   1.0000     -27.706880      -753.9425
   7   1.0000     -27.706692      -753.9374
   8   1.0000     -20.588551      -560.2430
   9   1.0000     -11.409905      -310.4793
  10   1.0000     -11.309998      -307.7607
  11   1.0000     -11.268029      -306.6187
  12   1.0000     -11.262973      -306.4811
  13   1.0000     -11.262895      -306.4789
  14   1.0000     -11.262498      -306.4681
  15   1.0000     -11.245059      -305.9936
  16   1.0000     -11.243058      -305.9392
  17   1.0000     -10.512760      -286.0668
  18   1.0000     -10.508646      -285.9548
  19   1.0000     -10.507251      -285.9168
  20   1.0000      -7.979621      -217.1365
  21   1.0000      -7.978806      -217.1144
  22   1.0000      -7.978781      -217.1137
  23   1.0000      -7.975499      -217.0244
  24   1.0000      -7.974747      -217.0039
  25   1.0000      -7.974687      -217.0023
  26   1.0000      -7.974063      -216.9853
  27   1.0000      -7.973368      -216.9664
  28   1.0000      -7.973300      -216.9645
  29   1.0000      -4.586550      -124.8064
  30   1.0000      -3.199482       -87.0623
  31   1.0000      -3.198214       -87.0278
  32   1.0000      -3.197972       -87.0212
  33   1.0000      -1.432538       -38.9813
  34   1.0000      -1.152622       -31.3644
  35   1.0000      -1.089692       -29.6520
  36   1.0000      -1.057889       -28.7866
  37   1.0000      -1.052019       -28.6269
  38   1.0000      -1.049024       -28.5454
  39   1.0000      -1.032537       -28.0968
  40   1.0000      -0.998633       -27.1742
  41   1.0000      -0.978668       -26.6309
  42   1.0000      -0.932093       -25.3635
  43   1.0000      -0.915714       -24.9178
  44   1.0000      -0.915633       -24.9156
  45   1.0000      -0.912346       -24.8262
  46   1.0000      -0.905829       -24.6489
  47   1.0000      -0.905134       -24.6300
  48   1.0000      -0.799470       -21.7547
  49   1.0000      -0.750307       -20.4169
  50   1.0000      -0.694325       -18.8935
  51   1.0000      -0.687494       -18.7077
  52   1.0000      -0.681940       -18.5565
  53   1.0000      -0.668784       -18.1986
  54   1.0000      -0.638434       -17.3727
  55   1.0000      -0.623307       -16.9610
  56   1.0000      -0.604549       -16.4506
  57   1.0000      -0.594569       -16.1790
  58   1.0000      -0.581949       -15.8356
  59   1.0000      -0.575179       -15.6514
  60   1.0000      -0.567178       -15.4337
  61   1.0000      -0.559361       -15.2210
  62   1.0000      -0.555660       -15.1203
  63   1.0000      -0.543665       -14.7939
  64   1.0000      -0.538954       -14.6657
  65   1.0000      -0.525450       -14.2982
  66   1.0000      -0.512473       -13.9451
  67   1.0000      -0.488920       -13.3042
  68   1.0000      -0.469620       -12.7790
  69   1.0000      -0.465328       -12.6622
  70   1.0000      -0.437541       -11.9061
  71   1.0000      -0.433251       -11.7893
  72   1.0000      -0.431236       -11.7345
  73   1.0000      -0.422622       -11.5001
  74   1.0000      -0.421198       -11.4614
  75   1.0000      -0.420206       -11.4344
  76   1.0000      -0.374590       -10.1931
  77   0.0000       0.011084         0.3016
  78   0.0000       0.021315         0.5800
  79   0.0000       0.022947         0.6244
  80   0.0000       0.029043         0.7903
  81   0.0000       0.036995         1.0067

                 SPIN DOWN ORBITALS
  NO   OCC          E(Eh)            E(eV)
   0   1.0000    -261.560000     -7117.4094
   1   1.0000    -104.784646     -2851.3352
   2   1.0000    -104.780473     -2851.2216
   3   1.0000    -104.779154     -2851.1857
   4   1.0000     -32.069345      -872.6512
   5   1.0000     -27.547291      -749.5999
   6   1.0000     -27.547222      -749.5980
   7   1.0000     -27.546976      -749.5913
   8   1.0000     -20.584372      -560.1293
   9   1.0000     -11.409826      -310.4771
  10   1.0000     -11.309781      -307.7548
  11   1.0000     -11.267917      -306.6156
  12   1.0000     -11.263002      -306.4819
  13   1.0000     -11.262879      -306.4785
  14   1.0000     -11.262557      -306.4697
  15   1.0000     -11.245104      -305.9948
  16   1.0000     -11.243050      -305.9390
  17   1.0000     -10.511228      -286.0251
  18   1.0000     -10.507035      -285.9110
  19   1.0000     -10.505669      -285.8738
  20   1.0000      -7.977117      -217.0684
  21   1.0000      -7.976497      -217.0515
  22   1.0000      -7.976442      -217.0500
  23   1.0000      -7.972950      -216.9550
  24   1.0000      -7.972247      -216.9359
  25   1.0000      -7.972162      -216.9336
  26   1.0000      -7.971640      -216.9194
  27   1.0000      -7.970855      -216.8980
  28   1.0000      -7.970765      -216.8955
  29   1.0000      -4.144286      -112.7718
  30   1.0000      -2.665960       -72.5445
  31   1.0000      -2.665917       -72.5433
  32   1.0000      -2.665232       -72.5246
  33   1.0000      -1.421988       -38.6943
  34   1.0000      -1.151958       -31.3464
  35   1.0000      -1.086942       -29.5772
  36   1.0000      -1.042985       -28.3811
  37   1.0000      -1.032692       -28.1010
  38   1.0000      -1.029987       -28.0274
  39   1.0000      -1.027228       -27.9523
  40   1.0000      -0.997928       -27.1550
  41   1.0000      -0.978546       -26.6276
  42   1.0000      -0.912868       -24.8404
  43   1.0000      -0.813429       -22.1345
  44   1.0000      -0.750472       -20.4214
  45   1.0000      -0.697143       -18.9702
  46   1.0000      -0.686861       -18.6904
  47   1.0000      -0.681039       -18.5320
  48   1.0000      -0.668490       -18.1905
  49   1.0000      -0.638358       -17.3706
  50   1.0000      -0.622794       -16.9471
  51   1.0000      -0.603946       -16.4342
  52   1.0000      -0.594525       -16.1778
  53   1.0000      -0.581748       -15.8302
  54   1.0000      -0.573926       -15.6173
  55   1.0000      -0.567071       -15.4308
  56   1.0000      -0.559249       -15.2179
  57   1.0000      -0.555400       -15.1132
  58   1.0000      -0.542126       -14.7520
  59   1.0000      -0.536961       -14.6115
  60   1.0000      -0.515344       -14.0232
  61   1.0000      -0.511761       -13.9257
  62   1.0000      -0.488752       -13.2996
  63   1.0000      -0.476168       -12.9572
  64   1.0000      -0.473612       -12.8876
  65   1.0000      -0.446473       -12.1491
  66   1.0000      -0.442921       -12.0525
  67   1.0000      -0.440393       -11.9837
  68   1.0000      -0.425658       -11.5827
  69   1.0000      -0.420591       -11.4449
  70   1.0000      -0.406445       -11.0599
  71   1.0000      -0.372701       -10.1417
  72   0.0000       0.011072         0.3013
  73   0.0000       0.021290         0.5793
  74   0.0000       0.022933         0.6240
  75   0.0000       0.028825         0.7844
  76   0.0000       0.036370         0.9897

E(0)                                       ...  -3028.439509930
E(0)                                       ...  -3028.439509930
E(CORR)(strong-pairs)                      ...     -2.873235934
E(CORR)(weak-pairs)                        ...     -0.036297453
E(CORR)(corrected)                         ...     -2.909533387
E(TOT)                                     ...  -3031.349043317
E(CCSD(T))                                 ...  -3031.468833504
FINAL SINGLE POINT ENERGY     -3031.468833504304

DIPOLE MOMENT
-------------
                                X             Y             Z
Electronic contribution:     42.38544       5.30788       1.02931
Nuclear contribution   :    -46.50607      -6.19616      -1.53357
                        -----------------------------------------
Total Dipole Moment    :     -4.12063      -0.88827      -0.50427
                        -----------------------------------------
Magnitude (a.u.)       :      4.24534
Magnitude (Debye)      :     10.79079

Rotational constants in cm-1:     0.019177     0.010943     0.010297
Rotational constants in MHz :   574.906415   328.067580   308.688329

                             ****ORCA TERMINATED NORMALLY****
TOTAL RUN TIME: 0 days 18 hours 50 minutes 1 seconds 786 msec
