                         Program Version 4.1.2  - RELEASE  -
|  1> ! aug-cc-pVTZ aug-cc-pVTZ/C DLPNO-CCSD(T1) TightSCF NormalPNO UNO MiniPrint AutoAux
|  2> %pal nproc 10 end
|  3> %maxcore 20000
|  4> %mdci
|  5>      density none
|  6> end
|  7>
|  8> * xyz 0 6
|  9>  O     -0.36369000     -0.08559100     -0.49352000
| 10>  C     -1.28681400     -1.04921800     -0.43877900
| 11>  C     -3.03190700     -0.01599800     -0.13944500
| 12>  C     -2.15824300      1.07026400     -0.23644500
| 13>  C     -1.94302700      1.76568700     -1.53767300
| 14> Fe      1.42822700      0.04845600      0.05085400
| 15> Cl      1.99290400      2.00480700     -0.79555200
| 16>  C     -1.60291200      1.74690900      0.97173600
| 17> Cl      2.40248600     -1.74443500     -0.77844500
| 18> Cl      1.41168300      0.05091200      2.26439700
| 19>  H     -3.56798400     -0.26495300     -1.05287800
| 20>  H     -2.38309800      2.42925700      1.34286400
| 21>  H     -1.36133900      1.05442300      1.77890900
| 22>  H     -0.71508500      2.33370800      0.73118400
| 23>  H     -2.56385100      2.67468600     -1.51024200
| 24>  H     -0.90179700      2.07265500     -1.65848200
| 25>  H     -2.26664000      1.17085200     -2.39391000
| 26>  C     -3.73712700     -0.41511700      1.13432200
| 27>  H     -4.63850300      0.19684400      1.26890000
| 28>  H     -4.06072100     -1.45931100      1.09317200
| 29>  H     -3.11785600     -0.28826700      2.02463400
| 30>  C     -1.20885300     -1.96733100      0.75162700
| 31>  H     -2.05790800     -2.65029700      0.81312300
| 32>  H     -0.29597700     -2.56318100      0.60707400
| 33>  H     -1.08460900     -1.41817100      1.68565700
| 34>  C     -1.55880200     -1.71605200     -1.76441100
| 35>  H     -0.64890300     -2.28186500     -2.00869900
| 36>  H     -2.40610900     -2.40468700     -1.71807200
| 37>  H     -1.70812300     -0.98352100     -2.55965800
| 38> *
| 39>
| 40>
| 41>                          ****END OF INPUT****

CARTESIAN COORDINATES (ANGSTROEM)
---------------------------------
  O     -0.363690   -0.085591   -0.493520
  C     -1.286814   -1.049218   -0.438779
  C     -3.031907   -0.015998   -0.139445
  C     -2.158243    1.070264   -0.236445
  C     -1.943027    1.765687   -1.537673
  Fe     1.428227    0.048456    0.050854
  Cl     1.992904    2.004807   -0.795552
  C     -1.602912    1.746909    0.971736
  Cl     2.402486   -1.744435   -0.778445
  Cl     1.411683    0.050912    2.264397
  H     -3.567984   -0.264953   -1.052878
  H     -2.383098    2.429257    1.342864
  H     -1.361339    1.054423    1.778909
  H     -0.715085    2.333708    0.731184
  H     -2.563851    2.674686   -1.510242
  H     -0.901797    2.072655   -1.658482
  H     -2.266640    1.170852   -2.393910
  C     -3.737127   -0.415117    1.134322
  H     -4.638503    0.196844    1.268900
  H     -4.060721   -1.459311    1.093172
  H     -3.117856   -0.288267    2.024634
  C     -1.208853   -1.967331    0.751627
  H     -2.057908   -2.650297    0.813123
  H     -0.295977   -2.563181    0.607074
  H     -1.084609   -1.418171    1.685657
  C     -1.558802   -1.716052   -1.764411
  H     -0.648903   -2.281865   -2.008699
  H     -2.406109   -2.404687   -1.718072
  H     -1.708123   -0.983521   -2.559658

ORBITAL ENERGIES
----------------
                 SPIN UP ORBITALS
  NO   OCC          E(Eh)            E(eV)
   0   1.0000    -261.554641     -7117.2636
   1   1.0000    -104.778689     -2851.1731
   2   1.0000    -104.778339     -2851.1635
   3   1.0000    -104.778261     -2851.1614
   4   1.0000     -32.222519      -876.8193
   5   1.0000     -27.698535      -753.7155
   6   1.0000     -27.698144      -753.7048
   7   1.0000     -27.697954      -753.6996
   8   1.0000     -20.559989      -559.4658
   9   1.0000     -11.395898      -310.0981
  10   1.0000     -11.358257      -309.0739
  11   1.0000     -11.272265      -306.7339
  12   1.0000     -11.264365      -306.5190
  13   1.0000     -11.261545      -306.4422
  14   1.0000     -11.259054      -306.3744
  15   1.0000     -11.258441      -306.3578
  16   1.0000     -11.254657      -306.2548
  17   1.0000     -10.505203      -285.8611
  18   1.0000     -10.504932      -285.8537
  19   1.0000     -10.504806      -285.8503
  20   1.0000      -7.972007      -216.9293
  21   1.0000      -7.971817      -216.9242
  22   1.0000      -7.971639      -216.9193
  23   1.0000      -7.971307      -216.9103
  24   1.0000      -7.971222      -216.9080
  25   1.0000      -7.970991      -216.9017
  26   1.0000      -7.970936      -216.9002
  27   1.0000      -7.970906      -216.8994
  28   1.0000      -7.970824      -216.8972
  29   1.0000      -4.577942      -124.5721
  30   1.0000      -3.190684       -86.8229
  31   1.0000      -3.189944       -86.8028
  32   1.0000      -3.189411       -86.7883
  33   1.0000      -1.405076       -38.2341
  34   1.0000      -1.166770       -31.7494
  35   1.0000      -1.089053       -29.6346
  36   1.0000      -1.051065       -28.6009
  37   1.0000      -1.045297       -28.4440
  38   1.0000      -1.044432       -28.4204
  39   1.0000      -1.038424       -28.2570
  40   1.0000      -0.999326       -27.1930
  41   1.0000      -0.985933       -26.8286
  42   1.0000      -0.931545       -25.3486
  43   1.0000      -0.916036       -24.9266
  44   1.0000      -0.907572       -24.6963
  45   1.0000      -0.907499       -24.6943
  46   1.0000      -0.898607       -24.4523
  47   1.0000      -0.897967       -24.4349
  48   1.0000      -0.787923       -21.4405
  49   1.0000      -0.759864       -20.6769
  50   1.0000      -0.697427       -18.9779
  51   1.0000      -0.692248       -18.8370
  52   1.0000      -0.678599       -18.4656
  53   1.0000      -0.658582       -17.9209
  54   1.0000      -0.641750       -17.4629
  55   1.0000      -0.622156       -16.9297
  56   1.0000      -0.600362       -16.3367
  57   1.0000      -0.592920       -16.1342
  58   1.0000      -0.586085       -15.9482
  59   1.0000      -0.581635       -15.8271
  60   1.0000      -0.572810       -15.5869
  61   1.0000      -0.566794       -15.4232
  62   1.0000      -0.553970       -15.0743
  63   1.0000      -0.549381       -14.9494
  64   1.0000      -0.541291       -14.7293
  65   1.0000      -0.528120       -14.3709
  66   1.0000      -0.512055       -13.9337
  67   1.0000      -0.483710       -13.1624
  68   1.0000      -0.466280       -12.6881
  69   1.0000      -0.454908       -12.3787
  70   1.0000      -0.434259       -11.8168
  71   1.0000      -0.428744       -11.6667
  72   1.0000      -0.426207       -11.5977
  73   1.0000      -0.419620       -11.4184
  74   1.0000      -0.417120       -11.3504
  75   1.0000      -0.416552       -11.3350
  76   1.0000      -0.375542       -10.2190
  77   0.0000       0.010190         0.2773
  78   0.0000       0.020778         0.5654
  79   0.0000       0.022718         0.6182
  80   0.0000       0.030439         0.8283
  81   0.0000       0.038218         1.0400

                 SPIN DOWN ORBITALS
  NO   OCC          E(Eh)            E(eV)
   0   1.0000    -261.551092     -7117.1670
   1   1.0000    -104.777321     -2851.1359
   2   1.0000    -104.776937     -2851.1254
   3   1.0000    -104.776828     -2851.1224
   4   1.0000     -32.060516      -872.4110
   5   1.0000     -27.538524      -749.3613
   6   1.0000     -27.538406      -749.3581
   7   1.0000     -27.538015      -749.3475
   8   1.0000     -20.554839      -559.3256
   9   1.0000     -11.395905      -310.0983
  10   1.0000     -11.358286      -309.0747
  11   1.0000     -11.271799      -306.7213
  12   1.0000     -11.264347      -306.5185
  13   1.0000     -11.261556      -306.4425
  14   1.0000     -11.259103      -306.3758
  15   1.0000     -11.258353      -306.3554
  16   1.0000     -11.254618      -306.2537
  17   1.0000     -10.503740      -285.8213
  18   1.0000     -10.503428      -285.8128
  19   1.0000     -10.503271      -285.8085
  20   1.0000      -7.969717      -216.8670
  21   1.0000      -7.969318      -216.8562
  22   1.0000      -7.969206      -216.8531
  23   1.0000      -7.969025      -216.8482
  24   1.0000      -7.968935      -216.8457
  25   1.0000      -7.968745      -216.8406
  26   1.0000      -7.968669      -216.8385
  27   1.0000      -7.968529      -216.8347
  28   1.0000      -7.968451      -216.8326
  29   1.0000      -4.135770      -112.5400
  30   1.0000      -2.657534       -72.3152
  31   1.0000      -2.657409       -72.3118
  32   1.0000      -2.656935       -72.2989
  33   1.0000      -1.391962       -37.8772
  34   1.0000      -1.165464       -31.7139
  35   1.0000      -1.086375       -29.5618
  36   1.0000      -1.037698       -28.2372
  37   1.0000      -1.036360       -28.2008
  38   1.0000      -1.024787       -27.8859
  39   1.0000      -1.024299       -27.8726
  40   1.0000      -0.998780       -27.1782
  41   1.0000      -0.985624       -26.8202
  42   1.0000      -0.925976       -25.1971
  43   1.0000      -0.800118       -21.7723
  44   1.0000      -0.760523       -20.6949
  45   1.0000      -0.697064       -18.9681
  46   1.0000      -0.693057       -18.8590
  47   1.0000      -0.679847       -18.4996
  48   1.0000      -0.657970       -17.9043
  49   1.0000      -0.641457       -17.4549
  50   1.0000      -0.622187       -16.9306
  51   1.0000      -0.599343       -16.3089
  52   1.0000      -0.592658       -16.1271
  53   1.0000      -0.585979       -15.9453
  54   1.0000      -0.581464       -15.8224
  55   1.0000      -0.572579       -15.5807
  56   1.0000      -0.566662       -15.4197
  57   1.0000      -0.553294       -15.0559
  58   1.0000      -0.549011       -14.9393
  59   1.0000      -0.536077       -14.5874
  60   1.0000      -0.527592       -14.3565
  61   1.0000      -0.506802       -13.7908
  62   1.0000      -0.479783       -13.0556
  63   1.0000      -0.470201       -12.7948
  64   1.0000      -0.465775       -12.6744
  65   1.0000      -0.440399       -11.9839
  66   1.0000      -0.438051       -11.9200
  67   1.0000      -0.435892       -11.8612
  68   1.0000      -0.424140       -11.5414
  69   1.0000      -0.415350       -11.3023
  70   1.0000      -0.403216       -10.9721
  71   1.0000      -0.374124       -10.1804
  72   0.0000       0.010191         0.2773
  73   0.0000       0.020716         0.5637
  74   0.0000       0.022697         0.6176
  75   0.0000       0.030478         0.8294
  76   0.0000       0.038192         1.0393

E(0)                                       ...  -3028.415135773
E(0)                                       ...  -3028.415135773
E(CORR)(strong-pairs)                      ...     -2.873417374
E(CORR)(weak-pairs)                        ...     -0.035769397
E(CORR)(corrected)                         ...     -2.909186771
E(TOT)                                     ...  -3031.324322544
E(CCSD(T))                                 ...  -3031.444159631
FINAL SINGLE POINT ENERGY     -3031.444159630996

DIPOLE MOMENT
-------------
                                X             Y             Z
Electronic contribution:     41.45685       2.77143       2.15672
Nuclear contribution   :    -45.82217      -2.90400      -2.64633
                        -----------------------------------------
Total Dipole Moment    :     -4.36532      -0.13256      -0.48961
                        -----------------------------------------
Magnitude (a.u.)       :      4.39469
Magnitude (Debye)      :     11.17041

Rotational constants in cm-1:     0.019475     0.011451     0.010608
Rotational constants in MHz :   583.839834   343.293259   318.027797

                             ****ORCA TERMINATED NORMALLY****
TOTAL RUN TIME: 0 days 21 hours 27 minutes 32 seconds 681 msec
