                         Program Version 4.1.2  - RELEASE  -
|  1> ! aug-cc-pVTZ aug-cc-pVTZ/C DLPNO-CCSD(T1) TightSCF NormalPNO UNO MiniPrint AutoAux
|  2> %pal nproc 10 end
|  3> %maxcore 20000
|  4> %mdci
|  5>      density none
|  6> end
|  7>
|  8> * xyz 0 6
|  9>  O     -0.37719800     -0.06430000     -0.46436400
| 10>  C     -1.27298500     -1.05091200     -0.42575500
| 11>  C     -3.06237200      0.01502500     -0.15767100
| 12>  C     -2.13848400      1.05808800     -0.24509100
| 13>  C     -1.90615200      1.75766500     -1.54422900
| 14> Fe      1.43066900      0.04976800      0.05565900
| 15> Cl      2.01618700      1.99164500     -0.80212200
| 16>  C     -1.60302000      1.73919200      0.97287400
| 17> Cl      2.35532000     -1.76126100     -0.79252500
| 18> Cl      1.43767400      0.04378800      2.26637900
| 19>  H     -3.57833000     -0.23634300     -1.08180300
| 20>  H     -2.38233800      2.43458000      1.31948500
| 21>  H     -1.38839400      1.05086200      1.79111400
| 22>  H     -0.70182000      2.31169200      0.74876700
| 23>  H     -2.54438400      2.65454000     -1.53072400
| 24>  H     -0.86845900      2.08003200     -1.64938000
| 25>  H     -2.20489700      1.15663400     -2.40547800
| 26>  C     -3.78403800     -0.38135500      1.10539400
| 27>  H     -4.68749800      0.23050300      1.22861200
| 28>  H     -4.10829300     -1.42582200      1.06332500
| 29>  H     -3.17679300     -0.25242000      2.00381600
| 30>  C     -1.22581300     -1.94896400      0.77750600
| 31>  H     -2.07844200     -2.62833700      0.82754200
| 32>  H     -0.31140100     -2.54998600      0.66414300
| 33>  H     -1.12190400     -1.38567600      1.70549300
| 34>  C     -1.52839300     -1.72076400     -1.74931500
| 35>  H     -0.61184400     -2.28209500     -1.98154300
| 36>  H     -2.37142800     -2.41460000     -1.70874400
| 37>  H     -1.67214000     -0.99189600     -2.54859400
| 38> *
| 39>
| 40>
| 41>                          ****END OF INPUT****

CARTESIAN COORDINATES (ANGSTROEM)
---------------------------------
  O     -0.377198   -0.064300   -0.464364
  C     -1.272985   -1.050912   -0.425755
  C     -3.062372    0.015025   -0.157671
  C     -2.138484    1.058088   -0.245091
  C     -1.906152    1.757665   -1.544229
  Fe     1.430669    0.049768    0.055659
  Cl     2.016187    1.991645   -0.802122
  C     -1.603020    1.739192    0.972874
  Cl     2.355320   -1.761261   -0.792525
  Cl     1.437674    0.043788    2.266379
  H     -3.578330   -0.236343   -1.081803
  H     -2.382338    2.434580    1.319485
  H     -1.388394    1.050862    1.791114
  H     -0.701820    2.311692    0.748767
  H     -2.544384    2.654540   -1.530724
  H     -0.868459    2.080032   -1.649380
  H     -2.204897    1.156634   -2.405478
  C     -3.784038   -0.381355    1.105394
  H     -4.687498    0.230503    1.228612
  H     -4.108293   -1.425822    1.063325
  H     -3.176793   -0.252420    2.003816
  C     -1.225813   -1.948964    0.777506
  H     -2.078442   -2.628337    0.827542
  H     -0.311401   -2.549986    0.664143
  H     -1.121904   -1.385676    1.705493
  C     -1.528393   -1.720764   -1.749315
  H     -0.611844   -2.282095   -1.981543
  H     -2.371428   -2.414600   -1.708744
  H     -1.672140   -0.991896   -2.548594

ORBITAL ENERGIES
----------------
                 SPIN UP ORBITALS
  NO   OCC          E(Eh)            E(eV)
   0   1.0000    -261.556997     -7117.3277
   1   1.0000    -104.780519     -2851.2229
   2   1.0000    -104.780327     -2851.2176
   3   1.0000    -104.779755     -2851.2021
   4   1.0000     -32.224856      -876.8829
   5   1.0000     -27.700918      -753.7803
   6   1.0000     -27.700438      -753.7672
   7   1.0000     -27.700284      -753.7630
   8   1.0000     -20.564276      -559.5824
   9   1.0000     -11.401688      -310.2557
  10   1.0000     -11.352183      -308.9086
  11   1.0000     -11.267489      -306.6040
  12   1.0000     -11.260792      -306.4217
  13   1.0000     -11.260789      -306.4217
  14   1.0000     -11.258652      -306.3635
  15   1.0000     -11.257640      -306.3360
  16   1.0000     -11.256889      -306.3155
  17   1.0000     -10.507070      -285.9119
  18   1.0000     -10.506848      -285.9059
  19   1.0000     -10.506346      -285.8922
  20   1.0000      -7.973906      -216.9810
  21   1.0000      -7.973643      -216.9739
  22   1.0000      -7.973227      -216.9625
  23   1.0000      -7.973166      -216.9609
  24   1.0000      -7.973088      -216.9588
  25   1.0000      -7.972955      -216.9551
  26   1.0000      -7.972875      -216.9529
  27   1.0000      -7.972411      -216.9403
  28   1.0000      -7.972353      -216.9388
  29   1.0000      -4.580238      -124.6346
  30   1.0000      -3.193008       -86.8862
  31   1.0000      -3.192198       -86.8641
  32   1.0000      -3.191683       -86.8501
  33   1.0000      -1.411175       -38.4000
  34   1.0000      -1.161370       -31.6025
  35   1.0000      -1.091347       -29.6971
  36   1.0000      -1.052967       -28.6527
  37   1.0000      -1.047048       -28.4916
  38   1.0000      -1.046506       -28.4769
  39   1.0000      -1.036028       -28.1918
  40   1.0000      -0.999115       -27.1873
  41   1.0000      -0.985751       -26.8236
  42   1.0000      -0.930884       -25.3306
  43   1.0000      -0.915348       -24.9079
  44   1.0000      -0.909857       -24.7585
  45   1.0000      -0.909756       -24.7557
  46   1.0000      -0.900775       -24.5113
  47   1.0000      -0.900033       -24.4911
  48   1.0000      -0.790204       -21.5025
  49   1.0000      -0.756996       -20.5989
  50   1.0000      -0.698501       -19.0072
  51   1.0000      -0.691285       -18.8108
  52   1.0000      -0.680206       -18.5093
  53   1.0000      -0.661053       -17.9882
  54   1.0000      -0.639399       -17.3989
  55   1.0000      -0.620859       -16.8944
  56   1.0000      -0.600227       -16.3330
  57   1.0000      -0.593516       -16.1504
  58   1.0000      -0.583863       -15.8877
  59   1.0000      -0.579734       -15.7754
  60   1.0000      -0.573004       -15.5922
  61   1.0000      -0.567810       -15.4509
  62   1.0000      -0.552466       -15.0334
  63   1.0000      -0.548270       -14.9192
  64   1.0000      -0.542950       -14.7744
  65   1.0000      -0.525620       -14.3029
  66   1.0000      -0.513224       -13.9655
  67   1.0000      -0.486683       -13.2433
  68   1.0000      -0.468065       -12.7367
  69   1.0000      -0.457020       -12.4361
  70   1.0000      -0.436500       -11.8778
  71   1.0000      -0.430326       -11.7098
  72   1.0000      -0.427804       -11.6411
  73   1.0000      -0.421361       -11.4658
  74   1.0000      -0.418783       -11.3957
  75   1.0000      -0.418293       -11.3823
  76   1.0000      -0.368119       -10.0170
  77   0.0000       0.010994         0.2992
  78   0.0000       0.021364         0.5813
  79   0.0000       0.023172         0.6305
  80   0.0000       0.030575         0.8320
  81   0.0000       0.038456         1.0464

                 SPIN DOWN ORBITALS
  NO   OCC          E(Eh)            E(eV)
   0   1.0000    -261.553446     -7117.2311
   1   1.0000    -104.779084     -2851.1838
   2   1.0000    -104.778942     -2851.1800
   3   1.0000    -104.778340     -2851.1636
   4   1.0000     -32.062876      -872.4752
   5   1.0000     -27.540860      -749.4249
   6   1.0000     -27.540761      -749.4222
   7   1.0000     -27.540403      -749.4125
   8   1.0000     -20.559324      -559.4476
   9   1.0000     -11.401730      -310.2569
  10   1.0000     -11.352246      -308.9103
  11   1.0000     -11.266927      -306.5887
  12   1.0000     -11.260768      -306.4211
  13   1.0000     -11.260705      -306.4194
  14   1.0000     -11.258659      -306.3637
  15   1.0000     -11.257601      -306.3349
  16   1.0000     -11.256949      -306.3172
  17   1.0000     -10.505533      -285.8701
  18   1.0000     -10.505368      -285.8656
  19   1.0000     -10.504828      -285.8509
  20   1.0000      -7.971460      -216.9145
  21   1.0000      -7.971352      -216.9115
  22   1.0000      -7.970792      -216.8963
  23   1.0000      -7.970722      -216.8944
  24   1.0000      -7.970714      -216.8941
  25   1.0000      -7.970631      -216.8919
  26   1.0000      -7.970544      -216.8895
  27   1.0000      -7.970130      -216.8783
  28   1.0000      -7.970052      -216.8761
  29   1.0000      -4.138108      -112.6036
  30   1.0000      -2.659879       -72.3790
  31   1.0000      -2.659703       -72.3742
  32   1.0000      -2.659288       -72.3629
  33   1.0000      -1.398614       -38.0582
  34   1.0000      -1.160026       -31.5659
  35   1.0000      -1.088754       -29.6265
  36   1.0000      -1.038242       -28.2520
  37   1.0000      -1.035244       -28.1704
  38   1.0000      -1.026437       -27.9308
  39   1.0000      -1.026192       -27.9241
  40   1.0000      -0.998436       -27.1688
  41   1.0000      -0.985608       -26.8197
  42   1.0000      -0.922447       -25.1011
  43   1.0000      -0.802181       -21.8284
  44   1.0000      -0.757453       -20.6113
  45   1.0000      -0.698561       -19.0088
  46   1.0000      -0.692643       -18.8478
  47   1.0000      -0.680446       -18.5159
  48   1.0000      -0.660529       -17.9739
  49   1.0000      -0.639199       -17.3935
  50   1.0000      -0.620870       -16.8947
  51   1.0000      -0.599146       -16.3036
  52   1.0000      -0.593335       -16.1455
  53   1.0000      -0.583740       -15.8844
  54   1.0000      -0.579630       -15.7725
  55   1.0000      -0.572750       -15.5853
  56   1.0000      -0.567530       -15.4433
  57   1.0000      -0.551837       -15.0162
  58   1.0000      -0.548000       -14.9118
  59   1.0000      -0.537899       -14.6370
  60   1.0000      -0.525151       -14.2901
  61   1.0000      -0.508515       -13.8374
  62   1.0000      -0.482556       -13.1310
  63   1.0000      -0.472176       -12.8486
  64   1.0000      -0.467881       -12.7317
  65   1.0000      -0.441999       -12.0274
  66   1.0000      -0.440029       -11.9738
  67   1.0000      -0.437524       -11.9056
  68   1.0000      -0.425288       -11.5727
  69   1.0000      -0.416980       -11.3466
  70   1.0000      -0.404801       -11.0152
  71   1.0000      -0.367029        -9.9874
  72   0.0000       0.010996         0.2992
  73   0.0000       0.021296         0.5795
  74   0.0000       0.023150         0.6299
  75   0.0000       0.030615         0.8331
  76   0.0000       0.038427         1.0456

E(0)                                       ...  -3028.410344222
E(0)                                       ...  -3028.410344222
E(CORR)(strong-pairs)                      ...     -2.874276137
E(CORR)(weak-pairs)                        ...     -0.035773378
E(CORR)(corrected)                         ...     -2.910049515
E(TOT)                                     ...  -3031.320393736
E(CCSD(T))                                 ...  -3031.440508879
FINAL SINGLE POINT ENERGY     -3031.440508879223

DIPOLE MOMENT
-------------
                                X             Y             Z
Electronic contribution:     41.65698       2.49223       2.13680
Nuclear contribution   :    -45.86305      -2.72872      -2.63550
                        -----------------------------------------
Total Dipole Moment    :     -4.20607      -0.23650      -0.49871
                        -----------------------------------------
Magnitude (a.u.)       :      4.24213
Magnitude (Debye)      :     10.78264

Rotational constants in cm-1:     0.019521     0.011434     0.010610
Rotational constants in MHz :   585.221116   342.781573   318.091937

                             ****ORCA TERMINATED NORMALLY****
TOTAL RUN TIME: 0 days 22 hours 10 minutes 37 seconds 240 msec
