                         Program Version 4.1.2  - RELEASE  -
|  1> ! aug-cc-pVTZ aug-cc-pVTZ/C DLPNO-CCSD(T1) TightSCF NormalPNO UNO MiniPrint AutoAux
|  2> %pal nproc 10 end
|  3> %maxcore 20000
|  4> %mdci
|  5>      density none
|  6> end
|  7>
|  8> * xyz 0 6
|  9>  O      0.15936200      0.39159000     -0.88252400
| 10>  C      0.98605700      1.31775900     -0.68012600
| 11>  C      2.97633900      0.22995800      0.59089000
| 12>  C      2.75532200     -0.90161900     -0.11529000
| 13>  C      3.36766900     -1.11719400     -1.47123900
| 14> Fe     -1.50263700     -0.17592400     -0.00638900
| 15> Cl     -2.02773200     -2.02970700     -1.01761600
| 16>  C      1.86254900     -2.01293900      0.35165400
| 17> Cl     -2.79347400      1.54550000     -0.39957300
| 18> Cl     -1.08462900     -0.43219200      2.13402900
| 19>  H      3.67284300      0.95141000      0.16386400
| 20>  H      2.40626100     -2.96638900      0.34882800
| 21>  H      1.44951400     -1.85371100      1.34747300
| 22>  H      1.02375100     -2.13544500     -0.34808200
| 23>  H      3.98510600     -2.02486900     -1.46129900
| 24>  H      2.59169800     -1.28303200     -2.23109100
| 25>  H      4.00180200     -0.28295400     -1.78343700
| 26>  C      2.64903500      0.43466000      2.04930000
| 27>  H      3.41340000     -0.04958500      2.67171800
| 28>  H      2.65367000      1.49479400      2.31647700
| 29>  H      1.68087200      0.01873100      2.33682800
| 30>  C      0.77947300      2.27915300      0.45025300
| 31>  H      1.66575300      2.88110400      0.65239900
| 32>  H     -0.03089300      2.94773400      0.12286100
| 33>  H      0.43726100      1.77734500      1.35536000
| 34>  C      1.82882300      1.75219300     -1.84372500
| 35>  H      1.22788500      2.49633700     -2.38690100
| 36>  H      2.75679400      2.23351100     -1.53358400
| 37>  H      2.02553600      0.92327100     -2.52168900
| 38> *
| 39>
| 40>
| 41>                          ****END OF INPUT****

CARTESIAN COORDINATES (ANGSTROEM)
---------------------------------
  O      0.159362    0.391590   -0.882524
  C      0.986057    1.317759   -0.680126
  C      2.976339    0.229958    0.590890
  C      2.755322   -0.901619   -0.115290
  C      3.367669   -1.117194   -1.471239
  Fe    -1.502637   -0.175924   -0.006389
  Cl    -2.027732   -2.029707   -1.017616
  C      1.862549   -2.012939    0.351654
  Cl    -2.793474    1.545500   -0.399573
  Cl    -1.084629   -0.432192    2.134029
  H      3.672843    0.951410    0.163864
  H      2.406261   -2.966389    0.348828
  H      1.449514   -1.853711    1.347473
  H      1.023751   -2.135445   -0.348082
  H      3.985106   -2.024869   -1.461299
  H      2.591698   -1.283032   -2.231091
  H      4.001802   -0.282954   -1.783437
  C      2.649035    0.434660    2.049300
  H      3.413400   -0.049585    2.671718
  H      2.653670    1.494794    2.316477
  H      1.680872    0.018731    2.336828
  C      0.779473    2.279153    0.450253
  H      1.665753    2.881104    0.652399
  H     -0.030893    2.947734    0.122861
  H      0.437261    1.777345    1.355360
  C      1.828823    1.752193   -1.843725
  H      1.227885    2.496337   -2.386901
  H      2.756794    2.233511   -1.533584
  H      2.025536    0.923271   -2.521689

ORBITAL ENERGIES
----------------
                 SPIN UP ORBITALS
  NO   OCC          E(Eh)            E(eV)
   0   1.0000    -261.574233     -7117.7967
   1   1.0000    -104.793354     -2851.5721
   2   1.0000    -104.789785     -2851.4750
   3   1.0000    -104.787406     -2851.4103
   4   1.0000     -32.241970      -877.3486
   5   1.0000     -27.718436      -754.2570
   6   1.0000     -27.717327      -754.2268
   7   1.0000     -27.717110      -754.2209
   8   1.0000     -20.619314      -561.0801
   9   1.0000     -11.421352      -310.7908
  10   1.0000     -11.277204      -306.8683
  11   1.0000     -11.272477      -306.7397
  12   1.0000     -11.271102      -306.7023
  13   1.0000     -11.245932      -306.0174
  14   1.0000     -11.245811      -306.0141
  15   1.0000     -11.235685      -305.7385
  16   1.0000     -11.231605      -305.6275
  17   1.0000     -10.520085      -286.2661
  18   1.0000     -10.516469      -286.1677
  19   1.0000     -10.514043      -286.1017
  20   1.0000      -7.986918      -217.3351
  21   1.0000      -7.986160      -217.3145
  22   1.0000      -7.986114      -217.3132
  23   1.0000      -7.983333      -217.2375
  24   1.0000      -7.982571      -217.2168
  25   1.0000      -7.982520      -217.2154
  26   1.0000      -7.980838      -217.1696
  27   1.0000      -7.980178      -217.1517
  28   1.0000      -7.980120      -217.1501
  29   1.0000      -4.596891      -125.0878
  30   1.0000      -3.210057       -87.3501
  31   1.0000      -3.208320       -87.3028
  32   1.0000      -3.208121       -87.2974
  33   1.0000      -1.461886       -39.7799
  34   1.0000      -1.128472       -30.7073
  35   1.0000      -1.099488       -29.9186
  36   1.0000      -1.066241       -29.0139
  37   1.0000      -1.060283       -28.8518
  38   1.0000      -1.056936       -28.7607
  39   1.0000      -1.022396       -27.8208
  40   1.0000      -1.008921       -27.4541
  41   1.0000      -0.960522       -26.1371
  42   1.0000      -0.941922       -25.6310
  43   1.0000      -0.925866       -25.1941
  44   1.0000      -0.925691       -25.1893
  45   1.0000      -0.915142       -24.9023
  46   1.0000      -0.914437       -24.8831
  47   1.0000      -0.897042       -24.4098
  48   1.0000      -0.813314       -22.1314
  49   1.0000      -0.731886       -19.9156
  50   1.0000      -0.710933       -19.3455
  51   1.0000      -0.700903       -19.0725
  52   1.0000      -0.682900       -18.5827
  53   1.0000      -0.656346       -17.8601
  54   1.0000      -0.622591       -16.9416
  55   1.0000      -0.620700       -16.8901
  56   1.0000      -0.605656       -16.4807
  57   1.0000      -0.599623       -16.3166
  58   1.0000      -0.585620       -15.9355
  59   1.0000      -0.577717       -15.7205
  60   1.0000      -0.561048       -15.2669
  61   1.0000      -0.553665       -15.0660
  62   1.0000      -0.545745       -14.8505
  63   1.0000      -0.542016       -14.7490
  64   1.0000      -0.536851       -14.6085
  65   1.0000      -0.526341       -14.3225
  66   1.0000      -0.502898       -13.6846
  67   1.0000      -0.494470       -13.4552
  68   1.0000      -0.476496       -12.9661
  69   1.0000      -0.475293       -12.9334
  70   1.0000      -0.446045       -12.1375
  71   1.0000      -0.439852       -11.9690
  72   1.0000      -0.437822       -11.9137
  73   1.0000      -0.429472       -11.6865
  74   1.0000      -0.428307       -11.6548
  75   1.0000      -0.426869       -11.6157
  76   1.0000      -0.360820        -9.8184
  77   0.0000       0.012441         0.3385
  78   0.0000       0.023329         0.6348
  79   0.0000       0.024075         0.6551
  80   0.0000       0.030482         0.8295
  81   0.0000       0.039129         1.0647

                 SPIN DOWN ORBITALS
  NO   OCC          E(Eh)            E(eV)
   0   1.0000    -261.570649     -7117.6992
   1   1.0000    -104.791868     -2851.5317
   2   1.0000    -104.788230     -2851.4327
   3   1.0000    -104.785845     -2851.3678
   4   1.0000     -32.079967      -872.9403
   5   1.0000     -27.557888      -749.8882
   6   1.0000     -27.557810      -749.8861
   7   1.0000     -27.557701      -749.8832
   8   1.0000     -20.615739      -560.9828
   9   1.0000     -11.421272      -310.7886
  10   1.0000     -11.277096      -306.8654
  11   1.0000     -11.272464      -306.7393
  12   1.0000     -11.271097      -306.7022
  13   1.0000     -11.245933      -306.0174
  14   1.0000     -11.245792      -306.0136
  15   1.0000     -11.235684      -305.7385
  16   1.0000     -11.231617      -305.6278
  17   1.0000     -10.518497      -286.2229
  18   1.0000     -10.514810      -286.1225
  19   1.0000     -10.512384      -286.0565
  20   1.0000      -7.984413      -217.2669
  21   1.0000      -7.983684      -217.2471
  22   1.0000      -7.983645      -217.2460
  23   1.0000      -7.980707      -217.1661
  24   1.0000      -7.979993      -217.1466
  25   1.0000      -7.979905      -217.1443
  26   1.0000      -7.978370      -217.1025
  27   1.0000      -7.977490      -217.0785
  28   1.0000      -7.977403      -217.0762
  29   1.0000      -4.154792      -113.0576
  30   1.0000      -2.676368       -72.8277
  31   1.0000      -2.676310       -72.8261
  32   1.0000      -2.675873       -72.8142
  33   1.0000      -1.453123       -39.5415
  34   1.0000      -1.128162       -30.6988
  35   1.0000      -1.097038       -29.8519
  36   1.0000      -1.050530       -28.5864
  37   1.0000      -1.037985       -28.2450
  38   1.0000      -1.034285       -28.1443
  39   1.0000      -1.021655       -27.8007
  40   1.0000      -1.008468       -27.4418
  41   1.0000      -0.960453       -26.1353
  42   1.0000      -0.897162       -24.4130
  43   1.0000      -0.826961       -22.5028
  44   1.0000      -0.731965       -19.9178
  45   1.0000      -0.712945       -19.4002
  46   1.0000      -0.700032       -19.0488
  47   1.0000      -0.682291       -18.5661
  48   1.0000      -0.656286       -17.8585
  49   1.0000      -0.622565       -16.9408
  50   1.0000      -0.620175       -16.8758
  51   1.0000      -0.605405       -16.4739
  52   1.0000      -0.599477       -16.3126
  53   1.0000      -0.585255       -15.9256
  54   1.0000      -0.576068       -15.6756
  55   1.0000      -0.560492       -15.2518
  56   1.0000      -0.553396       -15.0587
  57   1.0000      -0.544707       -14.8222
  58   1.0000      -0.541754       -14.7419
  59   1.0000      -0.527601       -14.3568
  60   1.0000      -0.523418       -14.2429
  61   1.0000      -0.504793       -13.7361
  62   1.0000      -0.494514       -13.4564
  63   1.0000      -0.484531       -13.1848
  64   1.0000      -0.481514       -13.1027
  65   1.0000      -0.453706       -12.3460
  66   1.0000      -0.449910       -12.2427
  67   1.0000      -0.447083       -12.1658
  68   1.0000      -0.430969       -11.7273
  69   1.0000      -0.427950       -11.6451
  70   1.0000      -0.412577       -11.2268
  71   1.0000      -0.360245        -9.8028
  72   0.0000       0.012424         0.3381
  73   0.0000       0.023304         0.6341
  74   0.0000       0.024034         0.6540
  75   0.0000       0.030389         0.8269
  76   0.0000       0.039001         1.0613

E(0)                                       ...  -3028.464108870
E(0)                                       ...  -3028.464108870
E(CORR)(strong-pairs)                      ...     -2.867068126
E(CORR)(weak-pairs)                        ...     -0.035533572
E(CORR)(corrected)                         ...     -2.902601698
E(TOT)                                     ...  -3031.366710568
E(CCSD(T))                                 ...  -3031.484730808
FINAL SINGLE POINT ENERGY     -3031.484730807857

DIPOLE MOMENT
-------------
                                X             Y             Z
Electronic contribution:    -43.96837      -5.41205       1.27314
Nuclear contribution   :     47.36913       6.85895      -1.89362
                        -----------------------------------------
Total Dipole Moment    :      3.40075       1.44690      -0.62049
                        -----------------------------------------
Magnitude (a.u.)       :      3.74749
Magnitude (Debye)      :      9.52536

Rotational constants in cm-1:     0.018921     0.010565     0.009932
Rotational constants in MHz :   567.229107   316.725181   297.766898

                             ****ORCA TERMINATED NORMALLY****
TOTAL RUN TIME: 0 days 16 hours 28 minutes 20 seconds 850 msec
