                         Program Version 4.1.2  - RELEASE  -
|  1> ! aug-cc-pVTZ aug-cc-pVTZ/C DLPNO-CCSD(T1) TightSCF NormalPNO UNO MiniPrint AutoAux
|  2> %pal nproc 10 end
|  3> %maxcore 20000
|  4> %mdci
|  5>      density none
|  6> end
|  7>
|  8> * xyz 0 6
|  9>  O     -0.25321800     -0.27386400     -0.81789500
| 10>  C     -1.10716200     -1.19818800     -0.64357600
| 11>  C     -2.89315600     -0.22824600      0.53623000
| 12>  C     -2.61594700      0.93825200     -0.10324400
| 13>  C     -3.18851000      1.25818000     -1.45236200
| 14> Fe      1.45882200      0.14491100     -0.00719200
| 15> Cl      2.03608900      2.03921000     -0.92331100
| 16>  C     -1.70567500      1.98657500      0.45111300
| 17> Cl      2.67472900     -1.59313700     -0.55316000
| 18> Cl      1.14930800      0.28924900      2.16962100
| 19>  H     -3.62970700     -0.88126000      0.07055100
| 20>  H     -2.24473600      2.93926400      0.53514300
| 21>  H     -1.28618100      1.73771600      1.42478000
| 22>  H     -0.87624900      2.16405100     -0.24646400
| 23>  H     -3.73936900      2.20598900     -1.39945900
| 24>  H     -2.38609700      1.40973100     -2.18675800
| 25>  H     -3.87348800      0.48877400     -1.81637800
| 26>  C     -2.64660100     -0.47868600      2.00529800
| 27>  H     -3.40432200      0.05065500      2.59751900
| 28>  H     -2.73668100     -1.53956600      2.25064000
| 29>  H     -1.66646900     -0.13500500      2.34293600
| 30>  C     -0.85585600     -2.24720200      0.40458800
| 31>  H     -1.73110200     -2.87136700      0.58897100
| 32>  H     -0.05743200     -2.88045800     -0.00922500
| 33>  H     -0.48137700     -1.82255300      1.33529600
| 34>  C     -1.87549500     -1.63661500     -1.86396300
| 35>  H     -1.21031700     -2.33352600     -2.39306700
| 36>  H     -2.79452100     -2.17039800     -1.61772500
| 37>  H     -2.07730800     -0.80371300     -2.53464400
| 38> *
| 39>
| 40>
| 41>                          ****END OF INPUT****

CARTESIAN COORDINATES (ANGSTROEM)
---------------------------------
  O     -0.253218   -0.273864   -0.817895
  C     -1.107162   -1.198188   -0.643576
  C     -2.893156   -0.228246    0.536230
  C     -2.615947    0.938252   -0.103244
  C     -3.188510    1.258180   -1.452362
  Fe     1.458822    0.144911   -0.007192
  Cl     2.036089    2.039210   -0.923311
  C     -1.705675    1.986575    0.451113
  Cl     2.674729   -1.593137   -0.553160
  Cl     1.149308    0.289249    2.169621
  H     -3.629707   -0.881260    0.070551
  H     -2.244736    2.939264    0.535143
  H     -1.286181    1.737716    1.424780
  H     -0.876249    2.164051   -0.246464
  H     -3.739369    2.205989   -1.399459
  H     -2.386097    1.409731   -2.186758
  H     -3.873488    0.488774   -1.816378
  C     -2.646601   -0.478686    2.005298
  H     -3.404322    0.050655    2.597519
  H     -2.736681   -1.539566    2.250640
  H     -1.666469   -0.135005    2.342936
  C     -0.855856   -2.247202    0.404588
  H     -1.731102   -2.871367    0.588971
  H     -0.057432   -2.880458   -0.009225
  H     -0.481377   -1.822553    1.335296
  C     -1.875495   -1.636615   -1.863963
  H     -1.210317   -2.333526   -2.393067
  H     -2.794521   -2.170398   -1.617725
  H     -2.077308   -0.803713   -2.534644

ORBITAL ENERGIES
----------------
                 SPIN UP ORBITALS
  NO   OCC          E(Eh)            E(eV)
   0   1.0000    -261.568989     -7117.6540
   1   1.0000    -104.789606     -2851.4701
   2   1.0000    -104.785812     -2851.3669
   3   1.0000    -104.784177     -2851.3224
   4   1.0000     -32.236776      -877.2073
   5   1.0000     -27.713107      -754.1120
   6   1.0000     -27.712204      -754.0874
   7   1.0000     -27.712016      -754.0823
   8   1.0000     -20.601827      -560.6042
   9   1.0000     -11.417005      -310.6725
  10   1.0000     -11.290446      -307.2286
  11   1.0000     -11.272676      -306.7451
  12   1.0000     -11.267254      -306.5976
  13   1.0000     -11.254305      -306.2452
  14   1.0000     -11.253675      -306.2281
  15   1.0000     -11.240811      -305.8780
  16   1.0000     -11.237740      -305.7945
  17   1.0000     -10.516299      -286.1631
  18   1.0000     -10.512485      -286.0593
  19   1.0000     -10.510801      -286.0134
  20   1.0000      -7.983151      -217.2326
  21   1.0000      -7.982357      -217.2110
  22   1.0000      -7.982320      -217.2100
  23   1.0000      -7.979351      -217.1292
  24   1.0000      -7.978583      -217.1083
  25   1.0000      -7.978526      -217.1067
  26   1.0000      -7.977602      -217.0816
  27   1.0000      -7.976923      -217.0631
  28   1.0000      -7.976865      -217.0615
  29   1.0000      -4.591812      -124.9496
  30   1.0000      -3.204829       -87.2078
  31   1.0000      -3.203369       -87.1681
  32   1.0000      -3.203166       -87.1626
  33   1.0000      -1.446461       -39.3602
  34   1.0000      -1.141366       -31.0582
  35   1.0000      -1.094847       -29.7923
  36   1.0000      -1.061916       -28.8962
  37   1.0000      -1.056060       -28.7368
  38   1.0000      -1.053099       -28.6563
  39   1.0000      -1.027503       -27.9598
  40   1.0000      -1.004469       -27.3330
  41   1.0000      -0.969445       -26.3799
  42   1.0000      -0.936887       -25.4940
  43   1.0000      -0.920861       -25.0579
  44   1.0000      -0.920779       -25.0557
  45   1.0000      -0.910725       -24.7821
  46   1.0000      -0.909940       -24.7607
  47   1.0000      -0.905920       -24.6513
  48   1.0000      -0.805630       -21.9223
  49   1.0000      -0.741450       -20.1759
  50   1.0000      -0.702086       -19.1047
  51   1.0000      -0.692845       -18.8533
  52   1.0000      -0.683751       -18.6058
  53   1.0000      -0.664445       -18.0805
  54   1.0000      -0.630920       -17.1682
  55   1.0000      -0.621917       -16.9232
  56   1.0000      -0.605233       -16.4692
  57   1.0000      -0.597167       -16.2497
  58   1.0000      -0.583617       -15.8810
  59   1.0000      -0.575447       -15.6587
  60   1.0000      -0.562152       -15.2969
  61   1.0000      -0.557772       -15.1777
  62   1.0000      -0.549429       -14.9507
  63   1.0000      -0.546518       -14.8715
  64   1.0000      -0.535604       -14.5745
  65   1.0000      -0.529358       -14.4046
  66   1.0000      -0.504298       -13.7227
  67   1.0000      -0.495276       -13.4772
  68   1.0000      -0.472872       -12.8675
  69   1.0000      -0.470389       -12.7999
  70   1.0000      -0.441681       -12.0188
  71   1.0000      -0.436511       -11.8781
  72   1.0000      -0.434655       -11.8276
  73   1.0000      -0.425980       -11.5915
  74   1.0000      -0.424816       -11.5598
  75   1.0000      -0.423635       -11.5277
  76   1.0000      -0.367679       -10.0051
  77   0.0000       0.012044         0.3277
  78   0.0000       0.022434         0.6105
  79   0.0000       0.023490         0.6392
  80   0.0000       0.030068         0.8182
  81   0.0000       0.038589         1.0501

                 SPIN DOWN ORBITALS
  NO   OCC          E(Eh)            E(eV)
   0   1.0000    -261.565421     -7117.5570
   1   1.0000    -104.788158     -2851.4307
   2   1.0000    -104.784283     -2851.3253
   3   1.0000    -104.782659     -2851.2811
   4   1.0000     -32.074747      -872.7982
   5   1.0000     -27.552664      -749.7461
   6   1.0000     -27.552616      -749.7448
   7   1.0000     -27.552432      -749.7398
   8   1.0000     -20.597930      -560.4982
   9   1.0000     -11.416917      -310.6701
  10   1.0000     -11.290362      -307.2264
  11   1.0000     -11.272564      -306.7421
  12   1.0000     -11.267240      -306.5972
  13   1.0000     -11.254306      -306.2452
  14   1.0000     -11.253686      -306.2284
  15   1.0000     -11.240808      -305.8779
  16   1.0000     -11.237768      -305.7952
  17   1.0000     -10.514749      -286.1209
  18   1.0000     -10.510852      -286.0148
  19   1.0000     -10.509186      -285.9695
  20   1.0000      -7.980649      -217.1645
  21   1.0000      -7.979985      -217.1464
  22   1.0000      -7.979938      -217.1452
  23   1.0000      -7.976750      -217.0584
  24   1.0000      -7.976057      -217.0395
  25   1.0000      -7.975969      -217.0372
  26   1.0000      -7.975167      -217.0153
  27   1.0000      -7.974333      -216.9926
  28   1.0000      -7.974247      -216.9903
  29   1.0000      -4.149609      -112.9166
  30   1.0000      -2.671218       -72.6875
  31   1.0000      -2.671197       -72.6870
  32   1.0000      -2.670597       -72.6706
  33   1.0000      -1.436722       -39.0952
  34   1.0000      -1.140918       -31.0460
  35   1.0000      -1.092232       -29.7211
  36   1.0000      -1.046688       -28.4818
  37   1.0000      -1.034311       -28.1450
  38   1.0000      -1.030998       -28.0549
  39   1.0000      -1.026948       -27.9447
  40   1.0000      -1.003721       -27.3126
  41   1.0000      -0.969351       -26.3774
  42   1.0000      -0.906331       -24.6625
  43   1.0000      -0.819171       -22.2908
  44   1.0000      -0.741545       -20.1785
  45   1.0000      -0.704718       -19.1764
  46   1.0000      -0.691925       -18.8282
  47   1.0000      -0.682953       -18.5841
  48   1.0000      -0.664311       -18.0768
  49   1.0000      -0.630868       -17.1668
  50   1.0000      -0.621420       -16.9097
  51   1.0000      -0.604771       -16.4567
  52   1.0000      -0.597074       -16.2472
  53   1.0000      -0.583366       -15.8742
  54   1.0000      -0.574125       -15.6227
  55   1.0000      -0.561844       -15.2886
  56   1.0000      -0.557561       -15.1720
  57   1.0000      -0.549196       -14.9444
  58   1.0000      -0.544525       -14.8173
  59   1.0000      -0.534060       -14.5325
  60   1.0000      -0.518888       -14.1197
  61   1.0000      -0.504145       -13.7185
  62   1.0000      -0.496136       -13.5006
  63   1.0000      -0.480305       -13.0698
  64   1.0000      -0.477806       -13.0018
  65   1.0000      -0.449785       -12.2393
  66   1.0000      -0.446501       -12.1499
  67   1.0000      -0.443801       -12.0764
  68   1.0000      -0.428094       -11.6490
  69   1.0000      -0.424486       -11.5509
  70   1.0000      -0.409583       -11.1453
  71   1.0000      -0.366477        -9.9723
  72   0.0000       0.012029         0.3273
  73   0.0000       0.022409         0.6098
  74   0.0000       0.023466         0.6385
  75   0.0000       0.029946         0.8149
  76   0.0000       0.038334         1.0431

E(0)                                       ...  -3028.448454723
E(0)                                       ...  -3028.448454723
E(CORR)(strong-pairs)                      ...     -2.871594214
E(CORR)(weak-pairs)                        ...     -0.035994686
E(CORR)(corrected)                         ...     -2.907588900
E(TOT)                                     ...  -3031.356043622
E(CCSD(T))                                 ...  -3031.475171123
FINAL SINGLE POINT ENERGY     -3031.475171122660

DIPOLE MOMENT
-------------
                                X             Y             Z
Electronic contribution:     42.64304       4.74519       1.37449
Nuclear contribution   :    -46.40806      -5.83168      -1.96071
                        -----------------------------------------
Total Dipole Moment    :     -3.76502      -1.08649      -0.58622
                        -----------------------------------------
Magnitude (a.u.)       :      3.96226
Magnitude (Debye)      :     10.07126

Rotational constants in cm-1:     0.019055     0.010962     0.010312
Rotational constants in MHz :   571.260352   328.628888   309.149348

                             ****ORCA TERMINATED NORMALLY****
TOTAL RUN TIME: 0 days 18 hours 51 minutes 15 seconds 745 msec
