                         Program Version 4.1.2  - RELEASE  -
|  1> ! aug-cc-pVTZ aug-cc-pVTZ/C DLPNO-CCSD(T1) TightSCF NormalPNO UNO MiniPrint AutoAux
|  2> %pal nproc 10 end
|  3> %maxcore 20000
|  4> %mdci
|  5>      density none
|  6> end
|  7>
|  8> * xyz 0 6
|  9>  O     -0.32459300     -0.12875500     -0.61952100
| 10>  C     -1.18123000     -1.07181100     -0.54941700
| 11>  C     -3.17328600      0.02123400      0.05013600
| 12>  C     -2.31835400      1.04570800     -0.20955000
| 13>  C     -2.23026200      1.66485700     -1.57158500
| 14> Fe      1.46397200      0.07326200      0.05639000
| 15> Cl      2.09125300      1.99043000     -0.78697400
| 16>  C     -1.56087600      1.76683600      0.86520200
| 17> Cl      2.44322600     -1.72742200     -0.73445600
| 18> Cl      1.37770000      0.05574100      2.25546800
| 19>  H     -3.77384500     -0.34485900     -0.78031100
| 20>  H     -2.20540700      2.56488600      1.26022200
| 21>  H     -1.27566000      1.12985800      1.70342000
| 22>  H     -0.66115800      2.24259900      0.46759000
| 23>  H     -2.56464500      2.70828700     -1.49758900
| 24>  H     -1.19387100      1.68813700     -1.92290400
| 25>  H     -2.86340000      1.16313200     -2.30772800
| 26>  C     -3.62203000     -0.43114700      1.41315600
| 27>  H     -4.54475700      0.09799600      1.68758600
| 28>  H     -3.85563200     -1.50036400      1.43190700
| 29>  H     -2.88772800     -0.22760100      2.19589700
| 30>  C     -1.13692200     -2.00554300      0.62372600
| 31>  H     -2.02243800     -2.63712500      0.69395200
| 32>  H     -0.26477600     -2.65287500      0.44573100
| 33>  H     -0.95654500     -1.47626300      1.55959200
| 34>  C     -1.70112000     -1.61464300     -1.85163000
| 35>  H     -0.89780400     -2.26053400     -2.23565000
| 36>  H     -2.60124500     -2.21877900     -1.72723900
| 37>  H     -1.86018200     -0.82294700     -2.58330400
| 38> *
| 39>
| 40>
| 41>                          ****END OF INPUT****

CARTESIAN COORDINATES (ANGSTROEM)
---------------------------------
  O     -0.324593   -0.128755   -0.619521
  C     -1.181230   -1.071811   -0.549417
  C     -3.173286    0.021234    0.050136
  C     -2.318354    1.045708   -0.209550
  C     -2.230262    1.664857   -1.571585
  Fe     1.463972    0.073262    0.056390
  Cl     2.091253    1.990430   -0.786974
  C     -1.560876    1.766836    0.865202
  Cl     2.443226   -1.727422   -0.734456
  Cl     1.377700    0.055741    2.255468
  H     -3.773845   -0.344859   -0.780311
  H     -2.205407    2.564886    1.260222
  H     -1.275660    1.129858    1.703420
  H     -0.661158    2.242599    0.467590
  H     -2.564645    2.708287   -1.497589
  H     -1.193871    1.688137   -1.922904
  H     -2.863400    1.163132   -2.307728
  C     -3.622030   -0.431147    1.413156
  H     -4.544757    0.097996    1.687586
  H     -3.855632   -1.500364    1.431907
  H     -2.887728   -0.227601    2.195897
  C     -1.136922   -2.005543    0.623726
  H     -2.022438   -2.637125    0.693952
  H     -0.264776   -2.652875    0.445731
  H     -0.956545   -1.476263    1.559592
  C     -1.701120   -1.614643   -1.851630
  H     -0.897804   -2.260534   -2.235650
  H     -2.601245   -2.218779   -1.727239
  H     -1.860182   -0.822947   -2.583304

ORBITAL ENERGIES
----------------
                 SPIN UP ORBITALS
  NO   OCC          E(Eh)            E(eV)
   0   1.0000    -261.567631     -7117.6171
   1   1.0000    -104.787164     -2851.4037
   2   1.0000    -104.785990     -2851.3717
   3   1.0000    -104.784864     -2851.3411
   4   1.0000     -32.235415      -877.1702
   5   1.0000     -27.711736      -754.0747
   6   1.0000     -27.710838      -754.0502
   7   1.0000     -27.710712      -754.0468
   8   1.0000     -20.591064      -560.3113
   9   1.0000     -11.419556      -310.7419
  10   1.0000     -11.296459      -307.3923
  11   1.0000     -11.272726      -306.7465
  12   1.0000     -11.267917      -306.6156
  13   1.0000     -11.254780      -306.2581
  14   1.0000     -11.249934      -306.1263
  15   1.0000     -11.247114      -306.0495
  16   1.0000     -11.241635      -305.9004
  17   1.0000     -10.513827      -286.0958
  18   1.0000     -10.512600      -286.0624
  19   1.0000     -10.511443      -286.0309
  20   1.0000      -7.980684      -217.1654
  21   1.0000      -7.979896      -217.1440
  22   1.0000      -7.979855      -217.1429
  23   1.0000      -7.979475      -217.1326
  24   1.0000      -7.978696      -217.1114
  25   1.0000      -7.978610      -217.1090
  26   1.0000      -7.978237      -217.0989
  27   1.0000      -7.977564      -217.0806
  28   1.0000      -7.977497      -217.0787
  29   1.0000      -4.590579      -124.9160
  30   1.0000      -3.203657       -87.1759
  31   1.0000      -3.202180       -87.1357
  32   1.0000      -3.201908       -87.1283
  33   1.0000      -1.445976       -39.3470
  34   1.0000      -1.143978       -31.1292
  35   1.0000      -1.097017       -29.8514
  36   1.0000      -1.060191       -28.8493
  37   1.0000      -1.054810       -28.7028
  38   1.0000      -1.052875       -28.6502
  39   1.0000      -1.028624       -27.9903
  40   1.0000      -1.008173       -27.4338
  41   1.0000      -0.970636       -26.4123
  42   1.0000      -0.936766       -25.4907
  43   1.0000      -0.919928       -25.0325
  44   1.0000      -0.919777       -25.0284
  45   1.0000      -0.910184       -24.7674
  46   1.0000      -0.909313       -24.7437
  47   1.0000      -0.908771       -24.7289
  48   1.0000      -0.803831       -21.8734
  49   1.0000      -0.742310       -20.1993
  50   1.0000      -0.702338       -19.1116
  51   1.0000      -0.697812       -18.9884
  52   1.0000      -0.690208       -18.7815
  53   1.0000      -0.664458       -18.0808
  54   1.0000      -0.632367       -17.2076
  55   1.0000      -0.620040       -16.8721
  56   1.0000      -0.602977       -16.4078
  57   1.0000      -0.600115       -16.3299
  58   1.0000      -0.583216       -15.8701
  59   1.0000      -0.578027       -15.7289
  60   1.0000      -0.565594       -15.3906
  61   1.0000      -0.563594       -15.3362
  62   1.0000      -0.550973       -14.9927
  63   1.0000      -0.545612       -14.8468
  64   1.0000      -0.537812       -14.6346
  65   1.0000      -0.524079       -14.2609
  66   1.0000      -0.507183       -13.8012
  67   1.0000      -0.494186       -13.4475
  68   1.0000      -0.473458       -12.8835
  69   1.0000      -0.467272       -12.7151
  70   1.0000      -0.441587       -12.0162
  71   1.0000      -0.435670       -11.8552
  72   1.0000      -0.434182       -11.8147
  73   1.0000      -0.425909       -11.5896
  74   1.0000      -0.424105       -11.5405
  75   1.0000      -0.423905       -11.5351
  76   1.0000      -0.364950        -9.9308
  77   0.0000       0.012256         0.3335
  78   0.0000       0.023108         0.6288
  79   0.0000       0.023479         0.6389
  80   0.0000       0.030345         0.8257
  81   0.0000       0.039446         1.0734

                 SPIN DOWN ORBITALS
  NO   OCC          E(Eh)            E(eV)
   0   1.0000    -261.564070     -7117.5202
   1   1.0000    -104.785699     -2851.3638
   2   1.0000    -104.784497     -2851.3311
   3   1.0000    -104.783381     -2851.3007
   4   1.0000     -32.073405      -872.7617
   5   1.0000     -27.551328      -749.7097
   6   1.0000     -27.551289      -749.7087
   7   1.0000     -27.551051      -749.7022
   8   1.0000     -20.587059      -560.2023
   9   1.0000     -11.419382      -310.7372
  10   1.0000     -11.296562      -307.3951
  11   1.0000     -11.272629      -306.7438
  12   1.0000     -11.267905      -306.6153
  13   1.0000     -11.254491      -306.2503
  14   1.0000     -11.249965      -306.1271
  15   1.0000     -11.247093      -306.0490
  16   1.0000     -11.241643      -305.9007
  17   1.0000     -10.512260      -286.0531
  18   1.0000     -10.511004      -286.0190
  19   1.0000     -10.509864      -285.9879
  20   1.0000      -7.978165      -217.0969
  21   1.0000      -7.977493      -217.0786
  22   1.0000      -7.977429      -217.0769
  23   1.0000      -7.976889      -217.0622
  24   1.0000      -7.976253      -217.0449
  25   1.0000      -7.976152      -217.0421
  26   1.0000      -7.975851      -217.0339
  27   1.0000      -7.975036      -217.0118
  28   1.0000      -7.974949      -217.0094
  29   1.0000      -4.148368      -112.8828
  30   1.0000      -2.669971       -72.6536
  31   1.0000      -2.669904       -72.6518
  32   1.0000      -2.669538       -72.6418
  33   1.0000      -1.435818       -39.0706
  34   1.0000      -1.143391       -31.1132
  35   1.0000      -1.094467       -29.7819
  36   1.0000      -1.045019       -28.4364
  37   1.0000      -1.032873       -28.1059
  38   1.0000      -1.031452       -28.0672
  39   1.0000      -1.028109       -27.9763
  40   1.0000      -1.007373       -27.4120
  41   1.0000      -0.970527       -26.4094
  42   1.0000      -0.910352       -24.7720
  43   1.0000      -0.817737       -22.2517
  44   1.0000      -0.742356       -20.2005
  45   1.0000      -0.705341       -19.1933
  46   1.0000      -0.697711       -18.9857
  47   1.0000      -0.688444       -18.7335
  48   1.0000      -0.664421       -18.0798
  49   1.0000      -0.632280       -17.2052
  50   1.0000      -0.619720       -16.8634
  51   1.0000      -0.602656       -16.3991
  52   1.0000      -0.600038       -16.3279
  53   1.0000      -0.582794       -15.8586
  54   1.0000      -0.577524       -15.7152
  55   1.0000      -0.565386       -15.3849
  56   1.0000      -0.563434       -15.3318
  57   1.0000      -0.548185       -14.9169
  58   1.0000      -0.545175       -14.8350
  59   1.0000      -0.537065       -14.6143
  60   1.0000      -0.515641       -14.0313
  61   1.0000      -0.507194       -13.8014
  62   1.0000      -0.492881       -13.4120
  63   1.0000      -0.478336       -13.0162
  64   1.0000      -0.477406       -12.9909
  65   1.0000      -0.448589       -12.2067
  66   1.0000      -0.445605       -12.1255
  67   1.0000      -0.443281       -12.0623
  68   1.0000      -0.428495       -11.6599
  69   1.0000      -0.424119       -11.5409
  70   1.0000      -0.409330       -11.1384
  71   1.0000      -0.363683        -9.8963
  72   0.0000       0.012248         0.3333
  73   0.0000       0.023076         0.6279
  74   0.0000       0.023453         0.6382
  75   0.0000       0.030347         0.8258
  76   0.0000       0.039411         1.0724

E(0)                                       ...  -3028.435545699
E(0)                                       ...  -3028.435545699
E(CORR)(strong-pairs)                      ...     -2.871774319
E(CORR)(weak-pairs)                        ...     -0.036344987
E(CORR)(corrected)                         ...     -2.908119306
E(TOT)                                     ...  -3031.343665005
E(CCSD(T))                                 ...  -3031.462917287
FINAL SINGLE POINT ENERGY     -3031.462917286931

DIPOLE MOMENT
-------------
                                X             Y             Z
Electronic contribution:     42.92552       2.36114       2.22237
Nuclear contribution   :    -46.72509      -3.16501      -2.77930
                        -----------------------------------------
Total Dipole Moment    :     -3.79957      -0.80387      -0.55693
                        -----------------------------------------
Magnitude (a.u.)       :      3.92341
Magnitude (Debye)      :      9.97251

Rotational constants in cm-1:     0.019479     0.011022     0.010372
Rotational constants in MHz :   583.953201   330.432964   310.957650

                             ****ORCA TERMINATED NORMALLY****
TOTAL RUN TIME: 0 days 19 hours 22 minutes 17 seconds 400 msec
