                         Program Version 4.1.2  - RELEASE  -
|  1> ! aug-cc-pVTZ aug-cc-pVTZ/C DLPNO-CCSD(T1) TightSCF NormalPNO UNO MiniPrint AutoAux
|  2> %pal nproc 10 end
|  3> %maxcore 20000
|  4> %mdci
|  5>      density none
|  6> end
|  7>
|  8> * xyz 0 6
|  9>  O     -0.34738000     -0.13568600     -0.51446300
| 10>  C     -1.21263100     -1.11489800     -0.36406000
| 11>  C     -2.63429200     -0.39430900      0.67017000
| 12>  C     -2.79164500      0.78308600     -0.06290800
| 13>  C     -3.70534700      0.85388400     -1.23839500
| 14> Fe      1.45995500      0.16751100     -0.06605900
| 15> Cl      1.79388900      2.19177200     -0.86201400
| 16>  C     -2.00877500      1.99324300      0.23789600
| 17> Cl      2.58642400     -1.45881700     -1.02286300
| 18> Cl      1.60209400      0.11896700      2.14249900
| 19>  H     -3.39091200     -1.15342300      0.47052100
| 20>  H     -2.41606600      2.88897100     -0.23596400
| 21>  H     -1.85064300      2.15579200      1.30614200
| 22>  H     -1.00747400      1.80556800     -0.19569800
| 23>  H     -4.49823200      1.57856600     -1.00358500
| 24>  H     -3.18206600      1.25269700     -2.11698100
| 25>  H     -4.17282600     -0.10045700     -1.48360900
| 26>  C     -2.17057800     -0.31450900      2.11723300
| 27>  H     -2.84655500      0.33215200      2.68812100
| 28>  H     -2.18807000     -1.30063400      2.58381100
| 29>  H     -1.15756200      0.08455200      2.20758000
| 30>  C     -0.76156600     -2.27589400      0.51900900
| 31>  H     -1.57554800     -2.97336300      0.73355400
| 32>  H      0.00991600     -2.80456300     -0.05416900
| 33>  H     -0.30357400     -1.93410800      1.44626600
| 34>  C     -1.80618100     -1.59652000     -1.68328400
| 35>  H     -1.02607700     -2.18874300     -2.17470700
| 36>  H     -2.68391200     -2.23426400     -1.54472600
| 37>  H     -2.04503700     -0.76570700     -2.34685500
| 38> *
| 39>
| 40>
| 41>                          ****END OF INPUT****

CARTESIAN COORDINATES (ANGSTROEM)
---------------------------------
  O     -0.347380   -0.135686   -0.514463
  C     -1.212631   -1.114898   -0.364060
  C     -2.634292   -0.394309    0.670170
  C     -2.791645    0.783086   -0.062908
  C     -3.705347    0.853884   -1.238395
  Fe     1.459955    0.167511   -0.066059
  Cl     1.793889    2.191772   -0.862014
  C     -2.008775    1.993243    0.237896
  Cl     2.586424   -1.458817   -1.022863
  Cl     1.602094    0.118967    2.142499
  H     -3.390912   -1.153423    0.470521
  H     -2.416066    2.888971   -0.235964
  H     -1.850643    2.155792    1.306142
  H     -1.007474    1.805568   -0.195698
  H     -4.498232    1.578566   -1.003585
  H     -3.182066    1.252697   -2.116981
  H     -4.172826   -0.100457   -1.483609
  C     -2.170578   -0.314509    2.117233
  H     -2.846555    0.332152    2.688121
  H     -2.188070   -1.300634    2.583811
  H     -1.157562    0.084552    2.207580
  C     -0.761566   -2.275894    0.519009
  H     -1.575548   -2.973363    0.733554
  H      0.009916   -2.804563   -0.054169
  H     -0.303574   -1.934108    1.446266
  C     -1.806181   -1.596520   -1.683284
  H     -1.026077   -2.188743   -2.174707
  H     -2.683912   -2.234264   -1.544726
  H     -2.045037   -0.765707   -2.346855

ORBITAL ENERGIES
----------------
                 SPIN UP ORBITALS
  NO   OCC          E(Eh)            E(eV)
   0   1.0000    -261.549363     -7117.1200
   1   1.0000    -104.775149     -2851.0768
   2   1.0000    -104.772854     -2851.0143
   3   1.0000    -104.772328     -2851.0000
   4   1.0000     -32.217273      -876.6766
   5   1.0000     -27.693276      -753.5723
   6   1.0000     -27.692906      -753.5623
   7   1.0000     -27.692690      -753.5564
   8   1.0000     -20.554312      -559.3113
   9   1.0000     -11.378816      -309.6333
  10   1.0000     -11.364308      -309.2385
  11   1.0000     -11.288729      -307.1819
  12   1.0000     -11.281090      -306.9741
  13   1.0000     -11.263487      -306.4951
  14   1.0000     -11.253421      -306.2212
  15   1.0000     -11.250463      -306.1407
  16   1.0000     -11.246193      -306.0245
  17   1.0000     -10.501764      -285.7675
  18   1.0000     -10.499424      -285.7039
  19   1.0000     -10.498946      -285.6908
  20   1.0000      -7.968638      -216.8377
  21   1.0000      -7.967810      -216.8151
  22   1.0000      -7.967763      -216.8139
  23   1.0000      -7.966248      -216.7726
  24   1.0000      -7.965781      -216.7599
  25   1.0000      -7.965529      -216.7531
  26   1.0000      -7.965440      -216.7506
  27   1.0000      -7.965048      -216.7400
  28   1.0000      -7.964973      -216.7379
  29   1.0000      -4.572652      -124.4282
  30   1.0000      -3.185289       -86.6761
  31   1.0000      -3.184673       -86.6594
  32   1.0000      -3.184184       -86.6461
  33   1.0000      -1.396499       -38.0007
  34   1.0000      -1.183384       -32.2015
  35   1.0000      -1.082144       -29.4466
  36   1.0000      -1.046573       -28.4787
  37   1.0000      -1.044919       -28.4337
  38   1.0000      -1.040863       -28.3233
  39   1.0000      -1.039132       -28.2762
  40   1.0000      -1.005439       -27.3594
  41   1.0000      -0.978946       -26.6385
  42   1.0000      -0.929728       -25.2992
  43   1.0000      -0.915077       -24.9005
  44   1.0000      -0.902094       -24.5472
  45   1.0000      -0.902045       -24.5459
  46   1.0000      -0.893129       -24.3033
  47   1.0000      -0.892704       -24.2917
  48   1.0000      -0.789039       -21.4709
  49   1.0000      -0.768373       -20.9085
  50   1.0000      -0.700497       -19.0615
  51   1.0000      -0.692502       -18.8439
  52   1.0000      -0.669934       -18.2298
  53   1.0000      -0.660351       -17.9691
  54   1.0000      -0.652743       -17.7620
  55   1.0000      -0.628171       -17.0934
  56   1.0000      -0.600755       -16.3474
  57   1.0000      -0.597256       -16.2522
  58   1.0000      -0.592279       -16.1167
  59   1.0000      -0.577280       -15.7086
  60   1.0000      -0.575505       -15.6603
  61   1.0000      -0.564611       -15.3638
  62   1.0000      -0.556958       -15.1556
  63   1.0000      -0.542966       -14.7749
  64   1.0000      -0.532129       -14.4800
  65   1.0000      -0.524041       -14.2599
  66   1.0000      -0.510768       -13.8987
  67   1.0000      -0.473129       -12.8745
  68   1.0000      -0.461740       -12.5646
  69   1.0000      -0.449965       -12.2442
  70   1.0000      -0.427567       -11.6347
  71   1.0000      -0.425140       -11.5686
  72   1.0000      -0.421776       -11.4771
  73   1.0000      -0.413787       -11.2597
  74   1.0000      -0.411928       -11.2091
  75   1.0000      -0.411547       -11.1988
  76   1.0000      -0.395610       -10.7651
  77   0.0000       0.006218         0.1692
  78   0.0000       0.015915         0.4331
  79   0.0000       0.019276         0.5245
  80   0.0000       0.020836         0.5670
  81   0.0000       0.029666         0.8073

                 SPIN DOWN ORBITALS
  NO   OCC          E(Eh)            E(eV)
   0   1.0000    -261.545810     -7117.0233
   1   1.0000    -104.773762     -2851.0390
   2   1.0000    -104.771459     -2850.9763
   3   1.0000    -104.770885     -2850.9607
   4   1.0000     -32.055216      -872.2668
   5   1.0000     -27.533249      -749.2178
   6   1.0000     -27.533106      -749.2139
   7   1.0000     -27.532705      -749.2030
   8   1.0000     -20.549173      -559.1714
   9   1.0000     -11.378788      -309.6326
  10   1.0000     -11.364201      -309.2356
  11   1.0000     -11.288744      -307.1824
  12   1.0000     -11.280934      -306.9698
  13   1.0000     -11.263521      -306.4960
  14   1.0000     -11.253312      -306.2182
  15   1.0000     -11.250488      -306.1413
  16   1.0000     -11.246164      -306.0237
  17   1.0000     -10.500274      -285.7270
  18   1.0000     -10.497932      -285.6633
  19   1.0000     -10.497401      -285.6488
  20   1.0000      -7.966154      -216.7701
  21   1.0000      -7.965600      -216.7550
  22   1.0000      -7.965524      -216.7529
  23   1.0000      -7.963892      -216.7085
  24   1.0000      -7.963346      -216.6937
  25   1.0000      -7.963215      -216.6901
  26   1.0000      -7.963115      -216.6874
  27   1.0000      -7.962651      -216.6747
  28   1.0000      -7.962570      -216.6726
  29   1.0000      -4.130389      -112.3936
  30   1.0000      -2.652209       -72.1703
  31   1.0000      -2.652135       -72.1683
  32   1.0000      -2.651284       -72.1451
  33   1.0000      -1.383398       -37.6442
  34   1.0000      -1.182472       -32.1767
  35   1.0000      -1.079480       -29.3741
  36   1.0000      -1.044263       -28.4158
  37   1.0000      -1.031838       -28.0777
  38   1.0000      -1.020320       -27.7643
  39   1.0000      -1.018687       -27.7199
  40   1.0000      -1.005244       -27.3541
  41   1.0000      -0.978164       -26.6172
  42   1.0000      -0.928199       -25.2576
  43   1.0000      -0.800206       -21.7747
  44   1.0000      -0.770802       -20.9746
  45   1.0000      -0.701123       -19.0785
  46   1.0000      -0.691819       -18.8254
  47   1.0000      -0.670806       -18.2536
  48   1.0000      -0.661502       -18.0004
  49   1.0000      -0.651431       -17.7263
  50   1.0000      -0.627586       -17.0775
  51   1.0000      -0.600928       -16.3521
  52   1.0000      -0.596582       -16.2338
  53   1.0000      -0.591672       -16.1002
  54   1.0000      -0.577318       -15.7096
  55   1.0000      -0.574945       -15.6450
  56   1.0000      -0.564025       -15.3479
  57   1.0000      -0.556811       -15.1516
  58   1.0000      -0.541957       -14.7474
  59   1.0000      -0.531729       -14.4691
  60   1.0000      -0.519520       -14.1369
  61   1.0000      -0.502972       -13.6866
  62   1.0000      -0.471266       -12.8238
  63   1.0000      -0.465393       -12.6640
  64   1.0000      -0.458813       -12.4849
  65   1.0000      -0.436331       -11.8732
  66   1.0000      -0.433298       -11.7906
  67   1.0000      -0.431531       -11.7426
  68   1.0000      -0.423602       -11.5268
  69   1.0000      -0.411130       -11.1874
  70   1.0000      -0.397887       -10.8270
  71   1.0000      -0.390111       -10.6155
  72   0.0000       0.006222         0.1693
  73   0.0000       0.015608         0.4247
  74   0.0000       0.019280         0.5246
  75   0.0000       0.020793         0.5658
  76   0.0000       0.029639         0.8065

E(0)                                       ...  -3028.425484011
E(0)                                       ...  -3028.425484011
E(CORR)(strong-pairs)                      ...     -2.875399645
E(CORR)(weak-pairs)                        ...     -0.035817211
E(CORR)(corrected)                         ...     -2.911216856
E(TOT)                                     ...  -3031.336700867
E(CCSD(T))                                 ...  -3031.456883349
FINAL SINGLE POINT ENERGY     -3031.456883349211

DIPOLE MOMENT
-------------
                                X             Y             Z
Electronic contribution:     41.62781       6.55238      -0.37896
Nuclear contribution   :    -46.71643      -6.95554       0.15008
                        -----------------------------------------
Total Dipole Moment    :     -5.08861      -0.40316      -0.22888
                        -----------------------------------------
Magnitude (a.u.)       :      5.10969
Magnitude (Debye)      :     12.98780

Rotational constants in cm-1:     0.019395     0.010823     0.010260
Rotational constants in MHz :   581.441143   324.472255   307.601089

                             ****ORCA TERMINATED NORMALLY****
TOTAL RUN TIME: 0 days 21 hours 20 minutes 22 seconds 156 msec
