                         Program Version 4.1.2  - RELEASE  -
|  1> ! aug-cc-pVTZ aug-cc-pVTZ/C DLPNO-CCSD(T1) TightSCF NormalPNO UNO MiniPrint AutoAux
|  2> %pal nproc 10 end
|  3> %maxcore 20000
|  4> %mdci
|  5>      density none
|  6> end
|  7>
|  8> * xyz 0 6
|  9>  O     -0.34470100     -0.08913200     -0.41298100
| 10>  C     -1.25628900     -1.07317800     -0.26527200
| 11>  C     -2.52207600     -0.44349700      0.67880700
| 12>  C     -2.88891800      0.73550400     -0.04300400
| 13>  C     -3.96083900      0.70260800     -1.07012900
| 14> Fe      1.47486200      0.17281000     -0.07998300
| 15> Cl      1.73905600      2.24765800     -0.78920100
| 16>  C     -2.12061700      1.95736200      0.10975000
| 17> Cl      2.54664300     -1.39109800     -1.19775800
| 18> Cl      1.76899800      0.01415600      2.11218700
| 19>  H     -3.29550100     -1.21239600      0.60515000
| 20>  H     -2.51037500      2.81523100     -0.43888000
| 21>  H     -1.87414000      2.20660900      1.14483700
| 22>  H     -1.13354500      1.63663500     -0.32396900
| 23>  H     -4.79752100      1.30601900     -0.68384700
| 24>  H     -3.63838700      1.19537500     -1.99548000
| 25>  H     -4.32934500     -0.30153100     -1.28186200
| 26>  C     -2.03681200     -0.22879700      2.11798600
| 27>  H     -2.72753000      0.42607700      2.65893300
| 28>  H     -2.00186600     -1.18182200      2.64781800
| 29>  H     -1.03695500      0.20934400      2.14819800
| 30>  C     -0.73092400     -2.27773900      0.53476000
| 31>  H     -1.52546600     -2.99911500      0.74911500
| 32>  H      0.02770500     -2.76361900     -0.08756400
| 33>  H     -0.24957700     -1.96961100      1.46272400
| 34>  C     -1.78006700     -1.53531500     -1.63117300
| 35>  H     -0.95996100     -2.05398500     -2.13626000
| 36>  H     -2.62450700     -2.22725000     -1.54267000
| 37>  H     -2.06244700     -0.68982300     -2.26204700
| 38> *
| 39>
| 40>
| 41>                          ****END OF INPUT****

CARTESIAN COORDINATES (ANGSTROEM)
---------------------------------
  O     -0.344701   -0.089132   -0.412981
  C     -1.256289   -1.073178   -0.265272
  C     -2.522076   -0.443497    0.678807
  C     -2.888918    0.735504   -0.043004
  C     -3.960839    0.702608   -1.070129
  Fe     1.474862    0.172810   -0.079983
  Cl     1.739056    2.247658   -0.789201
  C     -2.120617    1.957362    0.109750
  Cl     2.546643   -1.391098   -1.197758
  Cl     1.768998    0.014156    2.112187
  H     -3.295501   -1.212396    0.605150
  H     -2.510375    2.815231   -0.438880
  H     -1.874140    2.206609    1.144837
  H     -1.133545    1.636635   -0.323969
  H     -4.797521    1.306019   -0.683847
  H     -3.638387    1.195375   -1.995480
  H     -4.329345   -0.301531   -1.281862
  C     -2.036812   -0.228797    2.117986
  H     -2.727530    0.426077    2.658933
  H     -2.001866   -1.181822    2.647818
  H     -1.036955    0.209344    2.148198
  C     -0.730924   -2.277739    0.534760
  H     -1.525466   -2.999115    0.749115
  H      0.027705   -2.763619   -0.087564
  H     -0.249577   -1.969611    1.462724
  C     -1.780067   -1.535315   -1.631173
  H     -0.959961   -2.053985   -2.136260
  H     -2.624507   -2.227250   -1.542670
  H     -2.062447   -0.689823   -2.262047

ORBITAL ENERGIES
----------------
                 SPIN UP ORBITALS
  NO   OCC          E(Eh)            E(eV)
   0   1.0000    -261.540017     -7116.8657
   1   1.0000    -104.768137     -2850.8860
   2   1.0000    -104.767188     -2850.8601
   3   1.0000    -104.765505     -2850.8143
   4   1.0000     -32.207950      -876.4229
   5   1.0000     -27.683819      -753.3150
   6   1.0000     -27.683672      -753.3110
   7   1.0000     -27.683422      -753.3042
   8   1.0000     -20.537050      -558.8415
   9   1.0000     -11.398066      -310.1571
  10   1.0000     -11.348843      -308.8177
  11   1.0000     -11.306011      -307.6522
  12   1.0000     -11.291109      -307.2467
  13   1.0000     -11.275960      -306.8345
  14   1.0000     -11.254841      -306.2598
  15   1.0000     -11.244497      -305.9783
  16   1.0000     -11.234336      -305.7018
  17   1.0000     -10.494729      -285.5761
  18   1.0000     -10.493742      -285.5492
  19   1.0000     -10.492105      -285.5047
  20   1.0000      -7.961605      -216.6463
  21   1.0000      -7.960779      -216.6238
  22   1.0000      -7.960719      -216.6222
  23   1.0000      -7.960574      -216.6182
  24   1.0000      -7.959840      -216.5983
  25   1.0000      -7.959743      -216.5956
  26   1.0000      -7.958933      -216.5736
  27   1.0000      -7.958206      -216.5538
  28   1.0000      -7.958129      -216.5517
  29   1.0000      -4.563433      -124.1773
  30   1.0000      -3.175933       -86.4215
  31   1.0000      -3.175605       -86.4126
  32   1.0000      -3.175045       -86.3974
  33   1.0000      -1.371881       -37.3308
  34   1.0000      -1.202759       -32.7287
  35   1.0000      -1.088871       -29.6297
  36   1.0000      -1.046651       -28.4808
  37   1.0000      -1.039119       -28.2759
  38   1.0000      -1.033888       -28.1335
  39   1.0000      -1.032099       -28.0848
  40   1.0000      -1.020407       -27.7667
  41   1.0000      -0.968107       -26.3435
  42   1.0000      -0.933621       -25.4051
  43   1.0000      -0.905584       -24.6422
  44   1.0000      -0.893042       -24.3009
  45   1.0000      -0.892966       -24.2988
  46   1.0000      -0.884607       -24.0714
  47   1.0000      -0.884271       -24.0622
  48   1.0000      -0.801148       -21.8003
  49   1.0000      -0.769095       -20.9281
  50   1.0000      -0.714285       -19.4367
  51   1.0000      -0.698677       -19.0120
  52   1.0000      -0.677174       -18.4269
  53   1.0000      -0.649418       -17.6715
  54   1.0000      -0.648514       -17.6470
  55   1.0000      -0.634396       -17.2628
  56   1.0000      -0.610097       -16.6016
  57   1.0000      -0.600832       -16.3495
  58   1.0000      -0.590995       -16.0818
  59   1.0000      -0.584707       -15.9107
  60   1.0000      -0.572024       -15.5656
  61   1.0000      -0.562853       -15.3160
  62   1.0000      -0.554648       -15.0927
  63   1.0000      -0.538217       -14.6456
  64   1.0000      -0.531314       -14.4578
  65   1.0000      -0.514443       -13.9987
  66   1.0000      -0.501177       -13.6377
  67   1.0000      -0.464311       -12.6346
  68   1.0000      -0.458327       -12.4717
  69   1.0000      -0.440101       -11.9757
  70   1.0000      -0.429402       -11.6846
  71   1.0000      -0.418946       -11.4001
  72   1.0000      -0.414810       -11.2876
  73   1.0000      -0.409124       -11.1328
  74   1.0000      -0.406509       -11.0617
  75   1.0000      -0.405738       -11.0407
  76   1.0000      -0.405071       -11.0225
  77   0.0000      -0.000582        -0.0158
  78   0.0000       0.001746         0.0475
  79   0.0000       0.017258         0.4696
  80   0.0000       0.018033         0.4907
  81   0.0000       0.027421         0.7462

                 SPIN DOWN ORBITALS
  NO   OCC          E(Eh)            E(eV)
   0   1.0000    -261.536469     -7116.7691
   1   1.0000    -104.766780     -2850.8490
   2   1.0000    -104.765843     -2850.8235
   3   1.0000    -104.764093     -2850.7759
   4   1.0000     -32.045894      -872.0131
   5   1.0000     -27.523976      -748.9655
   6   1.0000     -27.523798      -748.9606
   7   1.0000     -27.523312      -748.9474
   8   1.0000     -20.531293      -558.6849
   9   1.0000     -11.398049      -310.1567
  10   1.0000     -11.348723      -308.8144
  11   1.0000     -11.306015      -307.6523
  12   1.0000     -11.290964      -307.2428
  13   1.0000     -11.275969      -306.8347
  14   1.0000     -11.254866      -306.2605
  15   1.0000     -11.244400      -305.9757
  16   1.0000     -11.234297      -305.7008
  17   1.0000     -10.493269      -285.5364
  18   1.0000     -10.492300      -285.5100
  19   1.0000     -10.490591      -285.4635
  20   1.0000      -7.959158      -216.5797
  21   1.0000      -7.958622      -216.5651
  22   1.0000      -7.958545      -216.5630
  23   1.0000      -7.958253      -216.5551
  24   1.0000      -7.957641      -216.5384
  25   1.0000      -7.957534      -216.5355
  26   1.0000      -7.956551      -216.5088
  27   1.0000      -7.955858      -216.4899
  28   1.0000      -7.955784      -216.4879
  29   1.0000      -4.121207      -112.1437
  30   1.0000      -2.643104       -71.9225
  31   1.0000      -2.643019       -71.9202
  32   1.0000      -2.642107       -71.8954
  33   1.0000      -1.357270       -36.9332
  34   1.0000      -1.201717       -32.7004
  35   1.0000      -1.086403       -29.5625
  36   1.0000      -1.045725       -28.4556
  37   1.0000      -1.024969       -27.8908
  38   1.0000      -1.019544       -27.7432
  39   1.0000      -1.013702       -27.5842
  40   1.0000      -1.012161       -27.5423
  41   1.0000      -0.967394       -26.3241
  42   1.0000      -0.933072       -25.3902
  43   1.0000      -0.806440       -21.9443
  44   1.0000      -0.776209       -21.1217
  45   1.0000      -0.714951       -19.4548
  46   1.0000      -0.698023       -18.9942
  47   1.0000      -0.677355       -18.4318
  48   1.0000      -0.651383       -17.7250
  49   1.0000      -0.647566       -17.6212
  50   1.0000      -0.633516       -17.2389
  51   1.0000      -0.610159       -16.6033
  52   1.0000      -0.600798       -16.3485
  53   1.0000      -0.590584       -16.0706
  54   1.0000      -0.583666       -15.8824
  55   1.0000      -0.570679       -15.5290
  56   1.0000      -0.562606       -15.3093
  57   1.0000      -0.554528       -15.0895
  58   1.0000      -0.538103       -14.6425
  59   1.0000      -0.529323       -14.4036
  60   1.0000      -0.510110       -13.8808
  61   1.0000      -0.495322       -13.4784
  62   1.0000      -0.462626       -12.5887
  63   1.0000      -0.459556       -12.5052
  64   1.0000      -0.446284       -12.1440
  65   1.0000      -0.435329       -11.8459
  66   1.0000      -0.429364       -11.6836
  67   1.0000      -0.426205       -11.5976
  68   1.0000      -0.425154       -11.5690
  69   1.0000      -0.404750       -11.0138
  70   1.0000      -0.396300       -10.7839
  71   1.0000      -0.391908       -10.6644
  72   0.0000      -0.000663        -0.0180
  73   0.0000       0.001717         0.0467
  74   0.0000       0.017253         0.4695
  75   0.0000       0.018018         0.4903
  76   0.0000       0.027437         0.7466

E(0)                                       ...  -3028.425293155
E(0)                                       ...  -3028.425293155
E(CORR)(strong-pairs)                      ...     -2.873989329
E(CORR)(weak-pairs)                        ...     -0.035369074
E(CORR)(corrected)                         ...     -2.909358403
E(TOT)                                     ...  -3031.334651558
E(CCSD(T))                                 ...  -3031.453558574
FINAL SINGLE POINT ENERGY     -3031.453558573526

DIPOLE MOMENT
-------------
                                X             Y             Z
Electronic contribution:     41.45808       7.16083      -0.84260
Nuclear contribution   :    -47.26101      -7.23817       0.75593
                        -----------------------------------------
Total Dipole Moment    :     -5.80293      -0.07734      -0.08668
                        -----------------------------------------
Magnitude (a.u.)       :      5.80410
Magnitude (Debye)      :     14.75284

Rotational constants in cm-1:     0.019760     0.010629     0.010106
Rotational constants in MHz :   592.398880   318.638879   302.966138

                             ****ORCA TERMINATED NORMALLY****
TOTAL RUN TIME: 0 days 22 hours 6 minutes 51 seconds 537 msec
