                         Program Version 4.1.2  - RELEASE  -
|  1> ! aug-cc-pVTZ aug-cc-pVTZ/C DLPNO-CCSD(T1) TightSCF NormalPNO UNO MiniPrint AutoAux
|  2> %pal nproc 10 end
|  3> %maxcore 20000
|  4> %mdci
|  5>      density none
|  6> end
|  7>
|  8> * xyz 0 6
|  9>  O      0.23768600      0.39993800     -0.81991300
| 10>  C      0.94413900      1.40917700     -0.61395800
| 11>  C      3.21801000     -0.04084500      0.45231900
| 12>  C      2.56759600     -0.95982100     -0.28593800
| 13>  C      2.86105600     -1.13516000     -1.75268000
| 14> Fe     -1.46524600     -0.16235000      0.03757900
| 15> Cl     -2.08770200     -1.93168500     -1.05749200
| 16>  C      1.62098800     -1.98241900      0.27603500
| 17> Cl     -2.66513000      1.63329500     -0.32699400
| 18> Cl     -1.10897700     -0.47371400      2.17694300
| 19>  H      3.95169700      0.58396300     -0.05947100
| 20>  H      2.12017400     -2.96091500      0.30556200
| 21>  H      1.27372300     -1.75588600      1.28399800
| 22>  H      0.74713100     -2.10934800     -0.37245600
| 23>  H      3.26455400     -2.13937000     -1.93828300
| 24>  H      1.94162200     -1.05816800     -2.34680900
| 25>  H      3.58969600     -0.40772700     -2.12326500
| 26>  C      3.13697700      0.15475000      1.94087800
| 27>  H      4.00063500     -0.30727700      2.43880400
| 28>  H      3.15956700      1.21844400      2.20571600
| 29>  H      2.23506300     -0.28131600      2.37825400
| 30>  C      0.83293500      2.19349100      0.65355100
| 31>  H      1.70787100      2.82379500      0.81939700
| 32>  H     -0.05079600      2.84047100      0.54955400
| 33>  H      0.65813600      1.54014200      1.50956600
| 34>  C      1.73723600      1.97927300     -1.74651600
| 35>  H      1.19163900      2.86793000     -2.09656300
| 36>  H      2.72385300      2.31042000     -1.41592700
| 37>  H      1.81747100      1.27154300     -2.56977000
| 38> *
| 39>
| 40>
| 41>                          ****END OF INPUT****

CARTESIAN COORDINATES (ANGSTROEM)
---------------------------------
  O      0.237686    0.399938   -0.819913
  C      0.944139    1.409177   -0.613958
  C      3.218010   -0.040845    0.452319
  C      2.567596   -0.959821   -0.285938
  C      2.861056   -1.135160   -1.752680
  Fe    -1.465246   -0.162350    0.037579
  Cl    -2.087702   -1.931685   -1.057492
  C      1.620988   -1.982419    0.276035
  Cl    -2.665130    1.633295   -0.326994
  Cl    -1.108977   -0.473714    2.176943
  H      3.951697    0.583963   -0.059471
  H      2.120174   -2.960915    0.305562
  H      1.273723   -1.755886    1.283998
  H      0.747131   -2.109348   -0.372456
  H      3.264554   -2.139370   -1.938283
  H      1.941622   -1.058168   -2.346809
  H      3.589696   -0.407727   -2.123265
  C      3.136977    0.154750    1.940878
  H      4.000635   -0.307277    2.438804
  H      3.159567    1.218444    2.205716
  H      2.235063   -0.281316    2.378254
  C      0.832935    2.193491    0.653551
  H      1.707871    2.823795    0.819397
  H     -0.050796    2.840471    0.549554
  H      0.658136    1.540142    1.509566
  C      1.737236    1.979273   -1.746516
  H      1.191639    2.867930   -2.096563
  H      2.723853    2.310420   -1.415927
  H      1.817471    1.271543   -2.569770

ORBITAL ENERGIES
----------------
                 SPIN UP ORBITALS
  NO   OCC          E(Eh)            E(eV)
   0   1.0000    -261.579731     -7117.9463
   1   1.0000    -104.795879     -2851.6408
   2   1.0000    -104.793202     -2851.5680
   3   1.0000    -104.791547     -2851.5230
   4   1.0000     -32.247353      -877.4951
   5   1.0000     -27.723909      -754.4059
   6   1.0000     -27.722655      -754.3718
   7   1.0000     -27.722470      -754.3668
   8   1.0000     -20.626680      -561.2805
   9   1.0000     -11.422795      -310.8301
  10   1.0000     -11.280017      -306.9449
  11   1.0000     -11.273988      -306.7808
  12   1.0000     -11.257694      -306.3374
  13   1.0000     -11.237967      -305.8006
  14   1.0000     -11.236847      -305.7702
  15   1.0000     -11.235387      -305.7304
  16   1.0000     -11.225383      -305.4582
  17   1.0000     -10.522610      -286.3348
  18   1.0000     -10.519911      -286.2613
  19   1.0000     -10.518199      -286.2148
  20   1.0000      -7.989428      -217.4034
  21   1.0000      -7.988703      -217.3837
  22   1.0000      -7.988641      -217.3820
  23   1.0000      -7.986818      -217.3324
  24   1.0000      -7.985996      -217.3100
  25   1.0000      -7.985939      -217.3085
  26   1.0000      -7.984976      -217.2823
  27   1.0000      -7.984326      -217.2646
  28   1.0000      -7.984288      -217.2635
  29   1.0000      -4.602076      -125.2289
  30   1.0000      -3.215244       -87.4912
  31   1.0000      -3.213393       -87.4409
  32   1.0000      -3.213301       -87.4384
  33   1.0000      -1.472035       -40.0561
  34   1.0000      -1.118596       -30.4386
  35   1.0000      -1.104519       -30.0555
  36   1.0000      -1.069585       -29.1049
  37   1.0000      -1.063855       -28.9490
  38   1.0000      -1.061443       -28.8833
  39   1.0000      -1.020730       -27.7755
  40   1.0000      -1.008824       -27.4515
  41   1.0000      -0.953561       -25.9477
  42   1.0000      -0.945321       -25.7235
  43   1.0000      -0.930915       -25.3315
  44   1.0000      -0.930770       -25.3275
  45   1.0000      -0.919741       -25.0274
  46   1.0000      -0.919163       -25.0117
  47   1.0000      -0.890982       -24.2449
  48   1.0000      -0.817626       -22.2487
  49   1.0000      -0.723459       -19.6863
  50   1.0000      -0.716488       -19.4966
  51   1.0000      -0.707030       -19.2393
  52   1.0000      -0.686486       -18.6802
  53   1.0000      -0.649376       -17.6704
  54   1.0000      -0.622262       -16.9326
  55   1.0000      -0.616185       -16.7672
  56   1.0000      -0.602956       -16.4073
  57   1.0000      -0.600216       -16.3327
  58   1.0000      -0.586736       -15.9659
  59   1.0000      -0.579877       -15.7792
  60   1.0000      -0.561075       -15.2676
  61   1.0000      -0.549556       -14.9542
  62   1.0000      -0.547507       -14.8984
  63   1.0000      -0.536758       -14.6059
  64   1.0000      -0.535009       -14.5583
  65   1.0000      -0.522370       -14.2144
  66   1.0000      -0.506663       -13.7870
  67   1.0000      -0.487915       -13.2768
  68   1.0000      -0.479218       -13.0402
  69   1.0000      -0.478408       -13.0182
  70   1.0000      -0.449404       -12.2289
  71   1.0000      -0.442872       -12.0512
  72   1.0000      -0.441157       -12.0045
  73   1.0000      -0.432634       -11.7726
  74   1.0000      -0.431373       -11.7383
  75   1.0000      -0.430370       -11.7110
  76   1.0000      -0.354109        -9.6358
  77   0.0000       0.012860         0.3499
  78   0.0000       0.023984         0.6526
  79   0.0000       0.024965         0.6793
  80   0.0000       0.030887         0.8405
  81   0.0000       0.039615         1.0780

                 SPIN DOWN ORBITALS
  NO   OCC          E(Eh)            E(eV)
   0   1.0000    -261.576146     -7117.8488
   1   1.0000    -104.794370     -2851.5998
   2   1.0000    -104.791638     -2851.5254
   3   1.0000    -104.789968     -2851.4800
   4   1.0000     -32.085397      -873.0880
   5   1.0000     -27.563361      -750.0372
   6   1.0000     -27.563210      -750.0331
   7   1.0000     -27.563143      -750.0312
   8   1.0000     -20.623432      -561.1921
   9   1.0000     -11.422708      -310.8277
  10   1.0000     -11.279918      -306.9422
  11   1.0000     -11.273986      -306.7808
  12   1.0000     -11.257762      -306.3393
  13   1.0000     -11.237877      -305.7982
  14   1.0000     -11.236837      -305.7699
  15   1.0000     -11.235395      -305.7306
  16   1.0000     -11.225389      -305.4584
  17   1.0000     -10.521000      -286.2910
  18   1.0000     -10.518242      -286.2159
  19   1.0000     -10.516524      -286.1692
  20   1.0000      -7.986933      -217.3355
  21   1.0000      -7.986151      -217.3142
  22   1.0000      -7.986110      -217.3131
  23   1.0000      -7.984091      -217.2582
  24   1.0000      -7.983451      -217.2407
  25   1.0000      -7.983352      -217.2381
  26   1.0000      -7.982524      -217.2155
  27   1.0000      -7.981591      -217.1901
  28   1.0000      -7.981513      -217.1880
  29   1.0000      -4.160069      -113.2012
  30   1.0000      -2.681619       -72.9706
  31   1.0000      -2.681521       -72.9679
  32   1.0000      -2.681154       -72.9579
  33   1.0000      -1.464110       -39.8405
  34   1.0000      -1.118310       -30.4308
  35   1.0000      -1.102404       -29.9979
  36   1.0000      -1.053801       -28.6754
  37   1.0000      -1.041165       -28.3315
  38   1.0000      -1.038443       -28.2575
  39   1.0000      -1.019748       -27.7488
  40   1.0000      -1.008617       -27.4459
  41   1.0000      -0.953302       -25.9407
  42   1.0000      -0.891070       -24.2473
  43   1.0000      -0.829327       -22.5671
  44   1.0000      -0.723592       -19.6899
  45   1.0000      -0.717947       -19.5363
  46   1.0000      -0.706307       -19.2196
  47   1.0000      -0.685961       -18.6660
  48   1.0000      -0.649336       -17.6693
  49   1.0000      -0.621704       -16.9174
  50   1.0000      -0.616089       -16.7646
  51   1.0000      -0.602834       -16.4040
  52   1.0000      -0.600130       -16.3304
  53   1.0000      -0.586471       -15.9587
  54   1.0000      -0.578738       -15.7483
  55   1.0000      -0.560005       -15.2385
  56   1.0000      -0.548059       -14.9134
  57   1.0000      -0.546266       -14.8647
  58   1.0000      -0.535488       -14.5714
  59   1.0000      -0.526396       -14.3240
  60   1.0000      -0.521936       -14.2026
  61   1.0000      -0.508048       -13.8247
  62   1.0000      -0.488469       -13.2919
  63   1.0000      -0.486826       -13.2472
  64   1.0000      -0.485344       -13.2069
  65   1.0000      -0.456132       -12.4120
  66   1.0000      -0.453337       -12.3359
  67   1.0000      -0.450207       -12.2508
  68   1.0000      -0.433453       -11.7948
  69   1.0000      -0.431955       -11.7541
  70   1.0000      -0.415472       -11.3056
  71   1.0000      -0.353708        -9.6249
  72   0.0000       0.012844         0.3495
  73   0.0000       0.023960         0.6520
  74   0.0000       0.024921         0.6781
  75   0.0000       0.030828         0.8389
  76   0.0000       0.039524         1.0755

E(0)                                       ...  -3028.469839931
E(0)                                       ...  -3028.469839931
E(CORR)(strong-pairs)                      ...     -2.866420400
E(CORR)(weak-pairs)                        ...     -0.034834198
E(CORR)(corrected)                         ...     -2.901254598
E(TOT)                                     ...  -3031.371094528
E(CCSD(T))                                 ...  -3031.488787395
FINAL SINGLE POINT ENERGY     -3031.488787395263

DIPOLE MOMENT
-------------
                                X             Y             Z
Electronic contribution:    -43.48812      -4.36142       2.03155
Nuclear contribution   :     46.56552       5.94380      -2.62285
                        -----------------------------------------
Total Dipole Moment    :      3.07740       1.58238      -0.59131
                        -----------------------------------------
Magnitude (a.u.)       :      3.51055
Magnitude (Debye)      :      8.92311

Rotational constants in cm-1:     0.018659     0.010735     0.010117
Rotational constants in MHz :   559.368774   321.814131   303.292688

                             ****ORCA TERMINATED NORMALLY****
TOTAL RUN TIME: 0 days 17 hours 30 minutes 35 seconds 963 msec
