                         Program Version 4.1.2  - RELEASE  -
|  1> ! aug-cc-pVTZ aug-cc-pVTZ/C DLPNO-CCSD(T1) TightSCF NormalPNO UNO MiniPrint AutoAux
|  2> %pal nproc 10 end
|  3> %maxcore 20000
|  4> %mdci
|  5>      density none
|  6> end
|  7>
|  8> * xyz 0 6
|  9>  O     -0.32414900     -0.11974300     -0.62159600
| 10>  C     -1.22565600     -1.04085700     -0.54896500
| 11>  C     -3.08909200     -0.04160300      0.05856400
| 12>  C     -2.31322100      1.05581500     -0.19251300
| 13>  C     -2.25851300      1.68945300     -1.54537300
| 14> Fe      1.44931400      0.06794800      0.04827300
| 15> Cl      2.06035600      2.01302800     -0.75770600
| 16>  C     -1.56671300      1.78222800      0.88066900
| 17> Cl      2.46967000     -1.70673100     -0.75234600
| 18> Cl      1.35018200      0.03187700      2.25319900
| 19>  H     -3.70710600     -0.40004200     -0.76150600
| 20>  H     -2.24029200      2.54411700      1.29982300
| 21>  H     -1.24474100      1.13990400      1.70083800
| 22>  H     -0.69368300      2.30056400      0.47682300
| 23>  H     -2.60562600      2.72710300     -1.45169900
| 24>  H     -1.22403900      1.73201900     -1.90213500
| 25>  H     -2.89054100      1.18595500     -2.28019600
| 26>  C     -3.53025300     -0.48850500      1.42900100
| 27>  H     -4.44101300      0.05655500      1.71044600
| 28>  H     -3.77876100     -1.55326900      1.44697400
| 29>  H     -2.78480300     -0.29821000      2.20402300
| 30>  C     -1.12443800     -2.03060600      0.58037300
| 31>  H     -1.99304200     -2.68578900      0.64984200
| 32>  H     -0.24533300     -2.64743400      0.34182500
| 33>  H     -0.92417700     -1.54464300      1.53546300
| 34>  C     -1.71106000     -1.58028800     -1.87232300
| 35>  H     -0.88205500     -2.19004200     -2.25818700
| 36>  H     -2.59322800     -2.21534700     -1.77111600
| 37>  H     -1.89038000     -0.78292200     -2.59361800
| 38> *
| 39>
| 40>
| 41>                          ****END OF INPUT****

CARTESIAN COORDINATES (ANGSTROEM)
---------------------------------
  O     -0.324149   -0.119743   -0.621596
  C     -1.225656   -1.040857   -0.548965
  C     -3.089092   -0.041603    0.058564
  C     -2.313221    1.055815   -0.192513
  C     -2.258513    1.689453   -1.545373
  Fe     1.449314    0.067948    0.048273
  Cl     2.060356    2.013028   -0.757706
  C     -1.566713    1.782228    0.880669
  Cl     2.469670   -1.706731   -0.752346
  Cl     1.350182    0.031877    2.253199
  H     -3.707106   -0.400042   -0.761506
  H     -2.240292    2.544117    1.299823
  H     -1.244741    1.139904    1.700838
  H     -0.693683    2.300564    0.476823
  H     -2.605626    2.727103   -1.451699
  H     -1.224039    1.732019   -1.902135
  H     -2.890541    1.185955   -2.280196
  C     -3.530253   -0.488505    1.429001
  H     -4.441013    0.056555    1.710446
  H     -3.778761   -1.553269    1.446974
  H     -2.784803   -0.298210    2.204023
  C     -1.124438   -2.030606    0.580373
  H     -1.993042   -2.685789    0.649842
  H     -0.245333   -2.647434    0.341825
  H     -0.924177   -1.544643    1.535463
  C     -1.711060   -1.580288   -1.872323
  H     -0.882055   -2.190042   -2.258187
  H     -2.593228   -2.215347   -1.771116
  H     -1.890380   -0.782922   -2.593618

ORBITAL ENERGIES
----------------
                 SPIN UP ORBITALS
  NO   OCC          E(Eh)            E(eV)
   0   1.0000    -261.561981     -7117.4633
   1   1.0000    -104.783632     -2851.3076
   2   1.0000    -104.781739     -2851.2561
   3   1.0000    -104.781378     -2851.2463
   4   1.0000     -32.229815      -877.0178
   5   1.0000     -27.706011      -753.9189
   6   1.0000     -27.705320      -753.9001
   7   1.0000     -27.705170      -753.8960
   8   1.0000     -20.577629      -559.9458
   9   1.0000     -11.411541      -310.5238
  10   1.0000     -11.317509      -307.9651
  11   1.0000     -11.267675      -306.6090
  12   1.0000     -11.264330      -306.5180
  13   1.0000     -11.262281      -306.4622
  14   1.0000     -11.255303      -306.2724
  15   1.0000     -11.254268      -306.2442
  16   1.0000     -11.248486      -306.0869
  17   1.0000     -10.510278      -285.9992
  18   1.0000     -10.508334      -285.9463
  19   1.0000     -10.507944      -285.9357
  20   1.0000      -7.977145      -217.0691
  21   1.0000      -7.976335      -217.0471
  22   1.0000      -7.976296      -217.0460
  23   1.0000      -7.975197      -217.0162
  24   1.0000      -7.974747      -217.0039
  25   1.0000      -7.974432      -216.9953
  26   1.0000      -7.974347      -216.9930
  27   1.0000      -7.974059      -216.9852
  28   1.0000      -7.973984      -216.9831
  29   1.0000      -4.585076      -124.7663
  30   1.0000      -3.198010       -87.0223
  31   1.0000      -3.196831       -86.9902
  32   1.0000      -3.196480       -86.9806
  33   1.0000      -1.430263       -38.9194
  34   1.0000      -1.155826       -31.4516
  35   1.0000      -1.091861       -29.7110
  36   1.0000      -1.055980       -28.7347
  37   1.0000      -1.050584       -28.5879
  38   1.0000      -1.048610       -28.5341
  39   1.0000      -1.034664       -28.1546
  40   1.0000      -1.002008       -27.2660
  41   1.0000      -0.978723       -26.6324
  42   1.0000      -0.932157       -25.3653
  43   1.0000      -0.917053       -24.9543
  44   1.0000      -0.914484       -24.8844
  45   1.0000      -0.914329       -24.8802
  46   1.0000      -0.904520       -24.6132
  47   1.0000      -0.904295       -24.6071
  48   1.0000      -0.796927       -21.6855
  49   1.0000      -0.750788       -20.4300
  50   1.0000      -0.697394       -18.9771
  51   1.0000      -0.692681       -18.8488
  52   1.0000      -0.685161       -18.6442
  53   1.0000      -0.667854       -18.1732
  54   1.0000      -0.639149       -17.3921
  55   1.0000      -0.620099       -16.8737
  56   1.0000      -0.603023       -16.4091
  57   1.0000      -0.598219       -16.2784
  58   1.0000      -0.582780       -15.8583
  59   1.0000      -0.575608       -15.6631
  60   1.0000      -0.571253       -15.5446
  61   1.0000      -0.565624       -15.3914
  62   1.0000      -0.551348       -15.0030
  63   1.0000      -0.548686       -14.9305
  64   1.0000      -0.542920       -14.7736
  65   1.0000      -0.520509       -14.1638
  66   1.0000      -0.515494       -14.0273
  67   1.0000      -0.488315       -13.2877
  68   1.0000      -0.469702       -12.7812
  69   1.0000      -0.462307       -12.5800
  70   1.0000      -0.437331       -11.9004
  71   1.0000      -0.432128       -11.7588
  72   1.0000      -0.430649       -11.7185
  73   1.0000      -0.422380       -11.4936
  74   1.0000      -0.420620       -11.4457
  75   1.0000      -0.420265       -11.4360
  76   1.0000      -0.372965       -10.1489
  77   0.0000       0.011342         0.3086
  78   0.0000       0.021868         0.5951
  79   0.0000       0.022877         0.6225
  80   0.0000       0.030265         0.8235
  81   0.0000       0.038927         1.0593

                 SPIN DOWN ORBITALS
  NO   OCC          E(Eh)            E(eV)
   0   1.0000    -261.558426     -7117.3666
   1   1.0000    -104.782202     -2851.2687
   2   1.0000    -104.780265     -2851.2160
   3   1.0000    -104.779935     -2851.2070
   4   1.0000     -32.067779      -872.6086
   5   1.0000     -27.545739      -749.5577
   6   1.0000     -27.545669      -749.5557
   7   1.0000     -27.545365      -749.5475
   8   1.0000     -20.573192      -559.8250
   9   1.0000     -11.411421      -310.5205
  10   1.0000     -11.317496      -307.9647
  11   1.0000     -11.267573      -306.6062
  12   1.0000     -11.264093      -306.5116
  13   1.0000     -11.262260      -306.4617
  14   1.0000     -11.255297      -306.2722
  15   1.0000     -11.254293      -306.2449
  16   1.0000     -11.248510      -306.0875
  17   1.0000     -10.508745      -285.9575
  18   1.0000     -10.506756      -285.9034
  19   1.0000     -10.506406      -285.8938
  20   1.0000      -7.974640      -217.0010
  21   1.0000      -7.974021      -216.9841
  22   1.0000      -7.973952      -216.9823
  23   1.0000      -7.972657      -216.9470
  24   1.0000      -7.972387      -216.9397
  25   1.0000      -7.972008      -216.9294
  26   1.0000      -7.971914      -216.9268
  27   1.0000      -7.971622      -216.9188
  28   1.0000      -7.971531      -216.9164
  29   1.0000      -4.142807      -112.7315
  30   1.0000      -2.664460       -72.5036
  31   1.0000      -2.664411       -72.5023
  32   1.0000      -2.663906       -72.4886
  33   1.0000      -1.418998       -38.6129
  34   1.0000      -1.155024       -31.4298
  35   1.0000      -1.089186       -29.6383
  36   1.0000      -1.041126       -28.3305
  37   1.0000      -1.034206       -28.1422
  38   1.0000      -1.029140       -28.0043
  39   1.0000      -1.027559       -27.9613
  40   1.0000      -1.001194       -27.2439
  41   1.0000      -0.978635       -26.6300
  42   1.0000      -0.918805       -25.0020
  43   1.0000      -0.810945       -22.0669
  44   1.0000      -0.750865       -20.4321
  45   1.0000      -0.698551       -19.0085
  46   1.0000      -0.694398       -18.8955
  47   1.0000      -0.683769       -18.6063
  48   1.0000      -0.667417       -18.1614
  49   1.0000      -0.639070       -17.3900
  50   1.0000      -0.619854       -16.8671
  51   1.0000      -0.602383       -16.3917
  52   1.0000      -0.598169       -16.2770
  53   1.0000      -0.582529       -15.8514
  54   1.0000      -0.575287       -15.6544
  55   1.0000      -0.571084       -15.5400
  56   1.0000      -0.565356       -15.3841
  57   1.0000      -0.551102       -14.9962
  58   1.0000      -0.547154       -14.8888
  59   1.0000      -0.539933       -14.6923
  60   1.0000      -0.515664       -14.0319
  61   1.0000      -0.511837       -13.9278
  62   1.0000      -0.486434       -13.2365
  63   1.0000      -0.474226       -12.9043
  64   1.0000      -0.472799       -12.8655
  65   1.0000      -0.444807       -12.1038
  66   1.0000      -0.441813       -12.0224
  67   1.0000      -0.439809       -11.9678
  68   1.0000      -0.425683       -11.5834
  69   1.0000      -0.420281       -11.4364
  70   1.0000      -0.406120       -11.0511
  71   1.0000      -0.371249       -10.1022
  72   0.0000       0.011337         0.3085
  73   0.0000       0.021840         0.5943
  74   0.0000       0.022853         0.6219
  75   0.0000       0.030281         0.8240
  76   0.0000       0.038894         1.0584

E(0)                                       ...  -3028.429910441
E(0)                                       ...  -3028.429910441
E(CORR)(strong-pairs)                      ...     -2.872618481
E(CORR)(weak-pairs)                        ...     -0.036282140
E(CORR)(corrected)                         ...     -2.908900621
E(TOT)                                     ...  -3031.338811062
E(CCSD(T))                                 ...  -3031.458491413
FINAL SINGLE POINT ENERGY     -3031.458491413307

DIPOLE MOMENT
-------------
                                X             Y             Z
Electronic contribution:     42.23649       2.70869       2.26357
Nuclear contribution   :    -46.34729      -3.25399      -2.80395
                        -----------------------------------------
Total Dipole Moment    :     -4.11081      -0.54530      -0.54038
                        -----------------------------------------
Magnitude (a.u.)       :      4.18188
Magnitude (Debye)      :     10.62949

Rotational constants in cm-1:     0.019433     0.011164     0.010472
Rotational constants in MHz :   582.592924   334.681840   313.953435

                             ****ORCA TERMINATED NORMALLY****
TOTAL RUN TIME: 0 days 19 hours 6 minutes 34 seconds 416 msec
