                         Program Version 4.1.2  - RELEASE  -
|  1> ! aug-cc-pVTZ aug-cc-pVTZ/C DLPNO-CCSD(T1) TightSCF NormalPNO UNO MiniPrint AutoAux
|  2> %pal nproc 10 end
|  3> %maxcore 20000
|  4> %mdci
|  5>      density none
|  6> end
|  7>
|  8> * xyz 0 6
|  9>  O     -0.34476000     -0.09905300     -0.42558500
| 10>  C     -1.24293500     -1.08168200     -0.27413000
| 11>  C     -2.54602000     -0.42686300      0.69317700
| 12>  C     -2.88438600      0.73643400     -0.04838200
| 13>  C     -3.93089700      0.70015300     -1.10289000
| 14> Fe      1.47490100      0.17304700     -0.08027100
| 15> Cl      1.74849300      2.23661600     -0.81221000
| 16>  C     -2.12228300      1.96832400      0.11425600
| 17> Cl      2.54855200     -1.40732800     -1.17189000
| 18> Cl      1.75537500      0.03740700      2.11410200
| 19>  H     -3.30825400     -1.20480600      0.61013900
| 20>  H     -2.52082700      2.81932800     -0.43954900
| 21>  H     -1.91279700      2.22455800      1.15591100
| 22>  H     -1.12481100      1.68223300     -0.30411300
| 23>  H     -4.76342500      1.33307900     -0.75845900
| 24>  H     -3.57099000      1.15839200     -2.03243500
| 25>  H     -4.31645700     -0.30085900     -1.29873000
| 26>  C     -2.04617700     -0.21573500      2.12434400
| 27>  H     -2.72798300      0.44526800      2.66958500
| 28>  H     -2.01257900     -1.16712600      2.65709800
| 29>  H     -1.04400900      0.21784000      2.14659500
| 30>  C     -0.73526400     -2.27224900      0.55285800
| 31>  H     -1.53440400     -2.98634800      0.77282800
| 32>  H      0.02531300     -2.77223500     -0.05671000
| 33>  H     -0.25737000     -1.95108500      1.47795700
| 34>  C     -1.78338400     -1.55666300     -1.62623000
| 35>  H     -0.97251900     -2.09614000     -2.12536700
| 36>  H     -2.63623800     -2.23533100     -1.52164900
| 37>  H     -2.05505000     -0.71769800     -2.26943100
| 38> *
| 39>
| 40>
| 41>                          ****END OF INPUT****

CARTESIAN COORDINATES (ANGSTROEM)
---------------------------------
  O     -0.344760   -0.099053   -0.425585
  C     -1.242935   -1.081682   -0.274130
  C     -2.546020   -0.426863    0.693177
  C     -2.884386    0.736434   -0.048382
  C     -3.930897    0.700153   -1.102890
  Fe     1.474901    0.173047   -0.080271
  Cl     1.748493    2.236616   -0.812210
  C     -2.122283    1.968324    0.114256
  Cl     2.548552   -1.407328   -1.171890
  Cl     1.755375    0.037407    2.114102
  H     -3.308254   -1.204806    0.610139
  H     -2.520827    2.819328   -0.439549
  H     -1.912797    2.224558    1.155911
  H     -1.124811    1.682233   -0.304113
  H     -4.763425    1.333079   -0.758459
  H     -3.570990    1.158392   -2.032435
  H     -4.316457   -0.300859   -1.298730
  C     -2.046177   -0.215735    2.124344
  H     -2.727983    0.445268    2.669585
  H     -2.012579   -1.167126    2.657098
  H     -1.044009    0.217840    2.146595
  C     -0.735264   -2.272249    0.552858
  H     -1.534404   -2.986348    0.772828
  H      0.025313   -2.772235   -0.056710
  H     -0.257370   -1.951085    1.477957
  C     -1.783384   -1.556663   -1.626230
  H     -0.972519   -2.096140   -2.125367
  H     -2.636238   -2.235331   -1.521649
  H     -2.055050   -0.717698   -2.269431

ORBITAL ENERGIES
----------------
                 SPIN UP ORBITALS
  NO   OCC          E(Eh)            E(eV)
   0   1.0000    -261.541819     -7116.9147
   1   1.0000    -104.769408     -2850.9205
   2   1.0000    -104.768249     -2850.8890
   3   1.0000    -104.766744     -2850.8480
   4   1.0000     -32.209748      -876.4718
   5   1.0000     -27.685648      -753.3648
   6   1.0000     -27.685448      -753.3593
   7   1.0000     -27.685210      -753.3529
   8   1.0000     -20.540497      -558.9353
   9   1.0000     -11.391310      -309.9733
  10   1.0000     -11.356358      -309.0222
  11   1.0000     -11.302614      -307.5598
  12   1.0000     -11.289302      -307.1975
  13   1.0000     -11.273722      -306.7736
  14   1.0000     -11.253904      -306.2343
  15   1.0000     -11.246356      -306.0289
  16   1.0000     -11.236925      -305.7723
  17   1.0000     -10.496005      -285.6108
  18   1.0000     -10.494809      -285.5783
  19   1.0000     -10.493348      -285.5385
  20   1.0000      -7.962881      -216.6810
  21   1.0000      -7.962055      -216.6585
  22   1.0000      -7.961998      -216.6570
  23   1.0000      -7.961639      -216.6472
  24   1.0000      -7.960910      -216.6274
  25   1.0000      -7.960813      -216.6247
  26   1.0000      -7.960180      -216.6075
  27   1.0000      -7.959449      -216.5876
  28   1.0000      -7.959371      -216.5855
  29   1.0000      -4.565212      -124.2257
  30   1.0000      -3.177738       -86.4707
  31   1.0000      -3.177357       -86.4603
  32   1.0000      -3.176805       -86.4453
  33   1.0000      -1.377283       -37.4778
  34   1.0000      -1.198831       -32.6218
  35   1.0000      -1.085968       -29.5507
  36   1.0000      -1.046431       -28.4748
  37   1.0000      -1.040470       -28.3126
  38   1.0000      -1.035215       -28.1696
  39   1.0000      -1.033406       -28.1204
  40   1.0000      -1.017973       -27.7004
  41   1.0000      -0.970267       -26.4023
  42   1.0000      -0.933131       -25.3918
  43   1.0000      -0.907694       -24.6996
  44   1.0000      -0.894779       -24.3482
  45   1.0000      -0.894719       -24.3465
  46   1.0000      -0.886224       -24.1154
  47   1.0000      -0.885881       -24.1061
  48   1.0000      -0.796937       -21.6858
  49   1.0000      -0.769393       -20.9362
  50   1.0000      -0.711160       -19.3517
  51   1.0000      -0.697137       -18.9701
  52   1.0000      -0.674918       -18.3655
  53   1.0000      -0.651748       -17.7350
  54   1.0000      -0.649147       -17.6642
  55   1.0000      -0.633514       -17.2388
  56   1.0000      -0.607110       -16.5203
  57   1.0000      -0.601334       -16.3631
  58   1.0000      -0.590642       -16.0722
  59   1.0000      -0.584865       -15.9150
  60   1.0000      -0.572574       -15.5805
  61   1.0000      -0.562928       -15.3181
  62   1.0000      -0.556099       -15.1322
  63   1.0000      -0.538145       -14.6437
  64   1.0000      -0.533614       -14.5204
  65   1.0000      -0.516500       -14.0547
  66   1.0000      -0.503164       -13.6918
  67   1.0000      -0.465762       -12.6740
  68   1.0000      -0.458369       -12.4729
  69   1.0000      -0.441896       -12.0246
  70   1.0000      -0.427627       -11.6363
  71   1.0000      -0.420181       -11.4337
  72   1.0000      -0.416167       -11.3245
  73   1.0000      -0.409348       -11.1389
  74   1.0000      -0.406950       -11.0737
  75   1.0000      -0.406277       -11.0554
  76   1.0000      -0.405653       -11.0384
  77   0.0000       0.001890         0.0514
  78   0.0000       0.003259         0.0887
  79   0.0000       0.017642         0.4801
  80   0.0000       0.018575         0.5055
  81   0.0000       0.027794         0.7563

                 SPIN DOWN ORBITALS
  NO   OCC          E(Eh)            E(eV)
   0   1.0000    -261.538269     -7116.8181
   1   1.0000    -104.768043     -2850.8834
   2   1.0000    -104.766895     -2850.8521
   3   1.0000    -104.765325     -2850.8094
   4   1.0000     -32.047689      -872.0619
   5   1.0000     -27.525760      -749.0140
   6   1.0000     -27.525591      -749.0094
   7   1.0000     -27.525122      -748.9966
   8   1.0000     -20.534876      -558.7824
   9   1.0000     -11.391275      -309.9723
  10   1.0000     -11.356266      -309.0197
  11   1.0000     -11.302621      -307.5600
  12   1.0000     -11.289145      -307.1933
  13   1.0000     -11.273737      -306.7740
  14   1.0000     -11.253931      -306.2350
  15   1.0000     -11.246255      -306.0262
  16   1.0000     -11.236888      -305.7713
  17   1.0000     -10.494538      -285.5709
  18   1.0000     -10.493357      -285.5388
  19   1.0000     -10.491827      -285.4971
  20   1.0000      -7.960427      -216.6142
  21   1.0000      -7.959884      -216.5995
  22   1.0000      -7.959807      -216.5974
  23   1.0000      -7.959313      -216.5839
  24   1.0000      -7.958685      -216.5668
  25   1.0000      -7.958579      -216.5640
  26   1.0000      -7.957781      -216.5422
  27   1.0000      -7.957093      -216.5235
  28   1.0000      -7.957017      -216.5214
  29   1.0000      -4.122969      -112.1917
  30   1.0000      -2.644845       -71.9699
  31   1.0000      -2.644770       -71.9678
  32   1.0000      -2.643868       -71.9433
  33   1.0000      -1.362972       -37.0883
  34   1.0000      -1.197862       -32.5955
  35   1.0000      -1.083499       -29.4835
  36   1.0000      -1.045422       -28.4474
  37   1.0000      -1.026209       -27.9246
  38   1.0000      -1.017502       -27.6876
  39   1.0000      -1.014798       -27.6140
  40   1.0000      -1.013364       -27.5750
  41   1.0000      -0.969542       -26.3826
  42   1.0000      -0.932500       -25.3746
  43   1.0000      -0.803177       -21.8556
  44   1.0000      -0.776006       -21.1162
  45   1.0000      -0.711779       -19.3685
  46   1.0000      -0.696403       -18.9501
  47   1.0000      -0.675072       -18.3696
  48   1.0000      -0.654166       -17.8007
  49   1.0000      -0.647723       -17.6254
  50   1.0000      -0.632671       -17.2158
  51   1.0000      -0.607210       -16.5230
  52   1.0000      -0.601299       -16.3622
  53   1.0000      -0.589723       -16.0472
  54   1.0000      -0.584374       -15.9016
  55   1.0000      -0.571431       -15.5494
  56   1.0000      -0.562657       -15.3107
  57   1.0000      -0.555999       -15.1295
  58   1.0000      -0.537907       -14.6372
  59   1.0000      -0.532063       -14.4782
  60   1.0000      -0.511798       -13.9267
  61   1.0000      -0.496827       -13.5193
  62   1.0000      -0.464176       -12.6309
  63   1.0000      -0.460398       -12.5281
  64   1.0000      -0.448864       -12.2142
  65   1.0000      -0.432237       -11.7618
  66   1.0000      -0.430310       -11.7093
  67   1.0000      -0.427194       -11.6245
  68   1.0000      -0.426184       -11.5970
  69   1.0000      -0.405916       -11.0455
  70   1.0000      -0.395790       -10.7700
  71   1.0000      -0.392949       -10.6927
  72   0.0000       0.001871         0.0509
  73   0.0000       0.003152         0.0858
  74   0.0000       0.017638         0.4800
  75   0.0000       0.018559         0.5050
  76   0.0000       0.027807         0.7567

E(0)                                       ...  -3028.425526657
E(0)                                       ...  -3028.425526657
E(CORR)(strong-pairs)                      ...     -2.874208750
E(CORR)(weak-pairs)                        ...     -0.035494244
E(CORR)(corrected)                         ...     -2.909702994
E(TOT)                                     ...  -3031.335229651
E(CCSD(T))                                 ...  -3031.454483198
FINAL SINGLE POINT ENERGY     -3031.454483198036

DIPOLE MOMENT
-------------
                                X             Y             Z
Electronic contribution:     41.57720       7.03272      -0.87454
Nuclear contribution   :    -47.25126      -7.18265       0.76898
                        -----------------------------------------
Total Dipole Moment    :     -5.67405      -0.14992      -0.10556
                        -----------------------------------------
Magnitude (a.u.)       :      5.67702
Magnitude (Debye)      :     14.42983

Rotational constants in cm-1:     0.019696     0.010632     0.010111
Rotational constants in MHz :   590.462975   318.736050   303.106773

                             ****ORCA TERMINATED NORMALLY****
TOTAL RUN TIME: 0 days 20 hours 44 minutes 25 seconds 931 msec
