                         Program Version 4.1.2  - RELEASE  -
|  1> ! aug-cc-pVTZ aug-cc-pVTZ/C DLPNO-CCSD(T1) TightSCF NormalPNO UNO MiniPrint AutoAux
|  2> %pal nproc 10 end
|  3> %maxcore 20000
|  4> %mdci
|  5>      density none
|  6> end
|  7>
|  8> * xyz 0 6
|  9>  O     -0.32710800     -0.16826600     -0.58883400
| 10>  C     -1.31127800     -1.06828900     -0.49274600
| 11>  C     -2.94353700     -0.09520600     -0.05532400
| 12>  C     -2.21335200      1.09047000     -0.20462600
| 13>  C     -2.08031900      1.76595100     -1.52003900
| 14> Fe      1.41558300      0.05082200      0.03703700
| 15> Cl      1.89797700      2.06141900     -0.74952700
| 16>  C     -1.58348300      1.77681800      0.95247400
| 17> Cl      2.56790800     -1.64806400     -0.75281900
| 18> Cl      1.32043400      0.03263300      2.25663900
| 19>  H     -3.56344000     -0.35277700     -0.91186100
| 20>  H     -2.36049300      2.40961300      1.41081000
| 21>  H     -1.23321200      1.08577500      1.72071100
| 22>  H     -0.75543600      2.41699700      0.64192800
| 23>  H     -2.57740800      2.74418600     -1.43681900
| 24>  H     -1.02399500      1.96126100     -1.73320100
| 25>  H     -2.54257400      1.21231200     -2.33859400
| 26>  C     -3.54481600     -0.50001500      1.27538800
| 27>  H     -4.42898900      0.11518900      1.48327200
| 28>  H     -3.87267500     -1.54215900      1.25282800
| 29>  H     -2.85334500     -0.38109900      2.11170700
| 30>  C     -1.15172600     -2.06621000      0.63307100
| 31>  H     -1.99882100     -2.74929000      0.71801200
| 32>  H     -0.25810200     -2.65331100      0.38003100
| 33>  H     -0.95339400     -1.57914600      1.58847700
| 34>  C     -1.66705300     -1.68688400     -1.83162600
| 35>  H     -0.79114800     -2.27046400     -2.14241200
| 36>  H     -2.53290800     -2.35131300     -1.76689100
| 37>  H     -1.83638800     -0.92263100     -2.59270600
| 38> *
| 39>
| 40>
| 41>                          ****END OF INPUT****

CARTESIAN COORDINATES (ANGSTROEM)
---------------------------------
  O     -0.327108   -0.168266   -0.588834
  C     -1.311278   -1.068289   -0.492746
  C     -2.943537   -0.095206   -0.055324
  C     -2.213352    1.090470   -0.204626
  C     -2.080319    1.765951   -1.520039
  Fe     1.415583    0.050822    0.037037
  Cl     1.897977    2.061419   -0.749527
  C     -1.583483    1.776818    0.952474
  Cl     2.567908   -1.648064   -0.752819
  Cl     1.320434    0.032633    2.256639
  H     -3.563440   -0.352777   -0.911861
  H     -2.360493    2.409613    1.410810
  H     -1.233212    1.085775    1.720711
  H     -0.755436    2.416997    0.641928
  H     -2.577408    2.744186   -1.436819
  H     -1.023995    1.961261   -1.733201
  H     -2.542574    1.212312   -2.338594
  C     -3.544816   -0.500015    1.275388
  H     -4.428989    0.115189    1.483272
  H     -3.872675   -1.542159    1.252828
  H     -2.853345   -0.381099    2.111707
  C     -1.151726   -2.066210    0.633071
  H     -1.998821   -2.749290    0.718012
  H     -0.258102   -2.653311    0.380031
  H     -0.953394   -1.579146    1.588477
  C     -1.667053   -1.686884   -1.831626
  H     -0.791148   -2.270464   -2.142412
  H     -2.532908   -2.351313   -1.766891
  H     -1.836388   -0.922631   -2.592706

ORBITAL ENERGIES
----------------
                 SPIN UP ORBITALS
  NO   OCC          E(Eh)            E(eV)
   0   1.0000    -261.550491     -7117.1507
   1   1.0000    -104.776330     -2851.1089
   2   1.0000    -104.775725     -2851.0924
   3   1.0000    -104.773423     -2851.0298
   4   1.0000     -32.218382      -876.7067
   5   1.0000     -27.694300      -753.6002
   6   1.0000     -27.694111      -753.5951
   7   1.0000     -27.693831      -753.5875
   8   1.0000     -20.551966      -559.2474
   9   1.0000     -11.383873      -309.7709
  10   1.0000     -11.370077      -309.3955
  11   1.0000     -11.279916      -306.9421
  12   1.0000     -11.272350      -306.7362
  13   1.0000     -11.266601      -306.5798
  14   1.0000     -11.261892      -306.4517
  15   1.0000     -11.253784      -306.2310
  16   1.0000     -11.248271      -306.0810
  17   1.0000     -10.502930      -285.7993
  18   1.0000     -10.502227      -285.7801
  19   1.0000     -10.499962      -285.7185
  20   1.0000      -7.969820      -216.8698
  21   1.0000      -7.969052      -216.8489
  22   1.0000      -7.968969      -216.8467
  23   1.0000      -7.968924      -216.8455
  24   1.0000      -7.968319      -216.8290
  25   1.0000      -7.968225      -216.8264
  26   1.0000      -7.966791      -216.7874
  27   1.0000      -7.966073      -216.7679
  28   1.0000      -7.965981      -216.7654
  29   1.0000      -4.573853      -124.4609
  30   1.0000      -3.186525       -86.7098
  31   1.0000      -3.185933       -86.6936
  32   1.0000      -3.185395       -86.6790
  33   1.0000      -1.393455       -37.9178
  34   1.0000      -1.178109       -32.0580
  35   1.0000      -1.086037       -29.5526
  36   1.0000      -1.047812       -28.5124
  37   1.0000      -1.042411       -28.3654
  38   1.0000      -1.041601       -28.3434
  39   1.0000      -1.040180       -28.3047
  40   1.0000      -1.003674       -27.3114
  41   1.0000      -0.982260       -26.7287
  42   1.0000      -0.934157       -25.4197
  43   1.0000      -0.915345       -24.9078
  44   1.0000      -0.903494       -24.5853
  45   1.0000      -0.903402       -24.5828
  46   1.0000      -0.894615       -24.3437
  47   1.0000      -0.894432       -24.3387
  48   1.0000      -0.785624       -21.3779
  49   1.0000      -0.764889       -20.8137
  50   1.0000      -0.697934       -18.9918
  51   1.0000      -0.694092       -18.8872
  52   1.0000      -0.675602       -18.3841
  53   1.0000      -0.652206       -17.7474
  54   1.0000      -0.645343       -17.5607
  55   1.0000      -0.625893       -17.0314
  56   1.0000      -0.600962       -16.3530
  57   1.0000      -0.593385       -16.1468
  58   1.0000      -0.590175       -16.0595
  59   1.0000      -0.584234       -15.8978
  60   1.0000      -0.574959       -15.6454
  61   1.0000      -0.563559       -15.3352
  62   1.0000      -0.557232       -15.1630
  63   1.0000      -0.548144       -14.9158
  64   1.0000      -0.537350       -14.6220
  65   1.0000      -0.530689       -14.4408
  66   1.0000      -0.510448       -13.8900
  67   1.0000      -0.476983       -12.9794
  68   1.0000      -0.462973       -12.5981
  69   1.0000      -0.451371       -12.2824
  70   1.0000      -0.429224       -11.6798
  71   1.0000      -0.426082       -11.5943
  72   1.0000      -0.423591       -11.5265
  73   1.0000      -0.416102       -11.3227
  74   1.0000      -0.414499       -11.2791
  75   1.0000      -0.412795       -11.2327
  76   1.0000      -0.390344       -10.6218
  77   0.0000       0.008476         0.2306
  78   0.0000       0.019502         0.5307
  79   0.0000       0.021653         0.5892
  80   0.0000       0.030006         0.8165
  81   0.0000       0.032693         0.8896

                 SPIN DOWN ORBITALS
  NO   OCC          E(Eh)            E(eV)
   0   1.0000    -261.546946     -7117.0542
   1   1.0000    -104.774965     -2851.0717
   2   1.0000    -104.774393     -2851.0562
   3   1.0000    -104.771986     -2850.9907
   4   1.0000     -32.056326      -872.2970
   5   1.0000     -27.534393      -749.2489
   6   1.0000     -27.534234      -749.2446
   7   1.0000     -27.533764      -749.2318
   8   1.0000     -20.546450      -559.0973
   9   1.0000     -11.383815      -309.7694
  10   1.0000     -11.370045      -309.3947
  11   1.0000     -11.279621      -306.9341
  12   1.0000     -11.272344      -306.7361
  13   1.0000     -11.266627      -306.5805
  14   1.0000     -11.261922      -306.4525
  15   1.0000     -11.253681      -306.2282
  16   1.0000     -11.248231      -306.0799
  17   1.0000     -10.501462      -285.7593
  18   1.0000     -10.500799      -285.7413
  19   1.0000     -10.498424      -285.6766
  20   1.0000      -7.967336      -216.8022
  21   1.0000      -7.966817      -216.7881
  22   1.0000      -7.966759      -216.7865
  23   1.0000      -7.966743      -216.7861
  24   1.0000      -7.966133      -216.7695
  25   1.0000      -7.966036      -216.7669
  26   1.0000      -7.964372      -216.7216
  27   1.0000      -7.963673      -216.7026
  28   1.0000      -7.963592      -216.7004
  29   1.0000      -4.131579      -112.4260
  30   1.0000      -2.653360       -72.2016
  31   1.0000      -2.653271       -72.1992
  32   1.0000      -2.652697       -72.1836
  33   1.0000      -1.379278       -37.5321
  34   1.0000      -1.176934       -32.0260
  35   1.0000      -1.083341       -29.4792
  36   1.0000      -1.040572       -28.3154
  37   1.0000      -1.033459       -28.1218
  38   1.0000      -1.022434       -27.8218
  39   1.0000      -1.020006       -27.7558
  40   1.0000      -1.003315       -27.3016
  41   1.0000      -0.981633       -26.7116
  42   1.0000      -0.931673       -25.3521
  43   1.0000      -0.797614       -21.7042
  44   1.0000      -0.766792       -20.8655
  45   1.0000      -0.698152       -18.9977
  46   1.0000      -0.693235       -18.8639
  47   1.0000      -0.677688       -18.4408
  48   1.0000      -0.652636       -17.7591
  49   1.0000      -0.644168       -17.5287
  50   1.0000      -0.625915       -17.0320
  51   1.0000      -0.600042       -16.3280
  52   1.0000      -0.593314       -16.1449
  53   1.0000      -0.590065       -16.0565
  54   1.0000      -0.583585       -15.8802
  55   1.0000      -0.574847       -15.6424
  56   1.0000      -0.563595       -15.3362
  57   1.0000      -0.556552       -15.1446
  58   1.0000      -0.547410       -14.8958
  59   1.0000      -0.532856       -14.4998
  60   1.0000      -0.529059       -14.3964
  61   1.0000      -0.503678       -13.7058
  62   1.0000      -0.474114       -12.9013
  63   1.0000      -0.466429       -12.6922
  64   1.0000      -0.461550       -12.5594
  65   1.0000      -0.437667       -11.9095
  66   1.0000      -0.434247       -11.8165
  67   1.0000      -0.433245       -11.7892
  68   1.0000      -0.422998       -11.5104
  69   1.0000      -0.412697       -11.2301
  70   1.0000      -0.400253       -10.8914
  71   1.0000      -0.386230       -10.5098
  72   0.0000       0.008478         0.2307
  73   0.0000       0.019450         0.5293
  74   0.0000       0.021635         0.5887
  75   0.0000       0.030018         0.8168
  76   0.0000       0.032428         0.8824

E(0)                                       ...  -3028.423346645
E(0)                                       ...  -3028.423346645
E(CORR)(strong-pairs)                      ...     -2.871660781
E(CORR)(weak-pairs)                        ...     -0.035551663
E(CORR)(corrected)                         ...     -2.907212443
E(TOT)                                     ...  -3031.330559089
E(CCSD(T))                                 ...  -3031.449759365
FINAL SINGLE POINT ENERGY     -3031.449759364586

DIPOLE MOMENT
-------------
                                X             Y             Z
Electronic contribution:     40.88886       3.61783       2.27157
Nuclear contribution   :    -45.55737      -3.55737      -2.74108
                        -----------------------------------------
Total Dipole Moment    :     -4.66851       0.06046      -0.46951
                        -----------------------------------------
Magnitude (a.u.)       :      4.69245
Magnitude (Debye)      :     11.92726

Rotational constants in cm-1:     0.019317     0.011511     0.010632
Rotational constants in MHz :   579.117092   345.091500   318.745652

                             ****ORCA TERMINATED NORMALLY****
TOTAL RUN TIME: 0 days 20 hours 58 minutes 41 seconds 129 msec
