                         Program Version 4.1.2  - RELEASE  -
|  1> ! aug-cc-pVTZ aug-cc-pVTZ/C DLPNO-CCSD(T1) TightSCF NormalPNO UNO MiniPrint AutoAux
|  2> %pal nproc 10 end
|  3> %maxcore 20000
|  4> %mdci
|  5>      density none
|  6> end
|  7>
|  8> * xyz 0 6
|  9>  O     -0.32187000     -0.17238100     -0.71403000
| 10>  C     -1.25546400     -1.09210700     -0.56522200
| 11>  C     -2.76037400     -0.29120600      0.38151200
| 12>  C     -2.45637900      0.97672400     -0.10295200
| 13>  C     -2.91953500      1.45017400     -1.43549200
| 14> Fe      1.40242700      0.11283000     -0.01649800
| 15> Cl      1.93652700      2.11090200     -0.76709900
| 16>  C     -1.60387600      1.93127800      0.64781000
| 17> Cl      2.64090400     -1.55297900     -0.73574000
| 18> Cl      1.19001100      0.08910500      2.20087100
| 19>  H     -3.56828000     -0.80146500     -0.14050800
| 20>  H     -2.27398300      2.68508500      1.09152200
| 21>  H     -1.03440800      1.47294900      1.45441100
| 22>  H     -0.92059800      2.46184400     -0.02317600
| 23>  H     -3.31602300      2.46853900     -1.33956200
| 24>  H     -2.04767700      1.52455700     -2.10033900
| 25>  H     -3.67897900      0.81061900     -1.88730500
| 26>  C     -2.69463300     -0.58743500      1.87037600
| 27>  H     -3.46731600     -0.01050200      2.39214200
| 28>  H     -2.88955900     -1.64402400      2.06339600
| 29>  H     -1.72907300     -0.33493800      2.31325000
| 30>  C     -0.90433400     -2.25857000      0.34323500
| 31>  H     -1.74082200     -2.94746200      0.48043700
| 32>  H     -0.09349300     -2.79200500     -0.16999100
| 33>  H     -0.51912600     -1.93190600      1.30843100
| 34>  C     -1.86086500     -1.54491700     -1.88713100
| 35>  H     -1.07311000     -2.10939900     -2.40001700
| 36>  H     -2.72346100     -2.20173700     -1.74916800
| 37>  H     -2.12597700     -0.70780500     -2.53169200
| 38> *
| 39>
| 40>
| 41>                          ****END OF INPUT****

CARTESIAN COORDINATES (ANGSTROEM)
---------------------------------
  O     -0.321870   -0.172381   -0.714030
  C     -1.255464   -1.092107   -0.565222
  C     -2.760374   -0.291206    0.381512
  C     -2.456379    0.976724   -0.102952
  C     -2.919535    1.450174   -1.435492
  Fe     1.402427    0.112830   -0.016498
  Cl     1.936527    2.110902   -0.767099
  C     -1.603876    1.931278    0.647810
  Cl     2.640904   -1.552979   -0.735740
  Cl     1.190011    0.089105    2.200871
  H     -3.568280   -0.801465   -0.140508
  H     -2.273983    2.685085    1.091522
  H     -1.034408    1.472949    1.454411
  H     -0.920598    2.461844   -0.023176
  H     -3.316023    2.468539   -1.339562
  H     -2.047677    1.524557   -2.100339
  H     -3.678979    0.810619   -1.887305
  C     -2.694633   -0.587435    1.870376
  H     -3.467316   -0.010502    2.392142
  H     -2.889559   -1.644024    2.063396
  H     -1.729073   -0.334938    2.313250
  C     -0.904334   -2.258570    0.343235
  H     -1.740822   -2.947462    0.480437
  H     -0.093493   -2.792005   -0.169991
  H     -0.519126   -1.931906    1.308431
  C     -1.860865   -1.544917   -1.887131
  H     -1.073110   -2.109399   -2.400017
  H     -2.723461   -2.201737   -1.749168
  H     -2.125977   -0.707805   -2.531692

ORBITAL ENERGIES
----------------
                 SPIN UP ORBITALS
  NO   OCC          E(Eh)            E(eV)
   0   1.0000    -261.551788     -7117.1860
   1   1.0000    -104.778521     -2851.1685
   2   1.0000    -104.774454     -2851.0578
   3   1.0000    -104.773129     -2851.0218
   4   1.0000     -32.219684      -876.7422
   5   1.0000     -27.695645      -753.6368
   6   1.0000     -27.695356      -753.6289
   7   1.0000     -27.695115      -753.6224
   8   1.0000     -20.555503      -559.3437
   9   1.0000     -11.385550      -309.8166
  10   1.0000     -11.361116      -309.1517
  11   1.0000     -11.280045      -306.9456
  12   1.0000     -11.278120      -306.8932
  13   1.0000     -11.262222      -306.4607
  14   1.0000     -11.254976      -306.2635
  15   1.0000     -11.253169      -306.2143
  16   1.0000     -11.247155      -306.0507
  17   1.0000     -10.505128      -285.8591
  18   1.0000     -10.501034      -285.7477
  19   1.0000     -10.499740      -285.7125
  20   1.0000      -7.972022      -216.9297
  21   1.0000      -7.971144      -216.9059
  22   1.0000      -7.971108      -216.9049
  23   1.0000      -7.967849      -216.8162
  24   1.0000      -7.967138      -216.7968
  25   1.0000      -7.967057      -216.7946
  26   1.0000      -7.966580      -216.7817
  27   1.0000      -7.965843      -216.7616
  28   1.0000      -7.965767      -216.7595
  29   1.0000      -4.575009      -124.4923
  30   1.0000      -3.187588       -86.7387
  31   1.0000      -3.187027       -86.7234
  32   1.0000      -3.186599       -86.7118
  33   1.0000      -1.397168       -38.0189
  34   1.0000      -1.178363       -32.0649
  35   1.0000      -1.083671       -29.4882
  36   1.0000      -1.048958       -28.5436
  37   1.0000      -1.043867       -28.4051
  38   1.0000      -1.042317       -28.3629
  39   1.0000      -1.040448       -28.3120
  40   1.0000      -1.000844       -27.2344
  41   1.0000      -0.981129       -26.6979
  42   1.0000      -0.930681       -25.3251
  43   1.0000      -0.916549       -24.9406
  44   1.0000      -0.904420       -24.6105
  45   1.0000      -0.904303       -24.6073
  46   1.0000      -0.895727       -24.3740
  47   1.0000      -0.894984       -24.3537
  48   1.0000      -0.787067       -21.4172
  49   1.0000      -0.764847       -20.8126
  50   1.0000      -0.699250       -19.0275
  51   1.0000      -0.690433       -18.7876
  52   1.0000      -0.673044       -18.3145
  53   1.0000      -0.655206       -17.8291
  54   1.0000      -0.649734       -17.6802
  55   1.0000      -0.627330       -17.0705
  56   1.0000      -0.599575       -16.3153
  57   1.0000      -0.596045       -16.2192
  58   1.0000      -0.587759       -15.9937
  59   1.0000      -0.577353       -15.7106
  60   1.0000      -0.574381       -15.6297
  61   1.0000      -0.562822       -15.3152
  62   1.0000      -0.554401       -15.0860
  63   1.0000      -0.548936       -14.9373
  64   1.0000      -0.538749       -14.6601
  65   1.0000      -0.526320       -14.3219
  66   1.0000      -0.513920       -13.9845
  67   1.0000      -0.475246       -12.9321
  68   1.0000      -0.462208       -12.5773
  69   1.0000      -0.453676       -12.3452
  70   1.0000      -0.428073       -11.6485
  71   1.0000      -0.426611       -11.6087
  72   1.0000      -0.424578       -11.5533
  73   1.0000      -0.415488       -11.3060
  74   1.0000      -0.414303       -11.2738
  75   1.0000      -0.413108       -11.2412
  76   1.0000      -0.391079       -10.6418
  77   0.0000       0.008071         0.2196
  78   0.0000       0.018863         0.5133
  79   0.0000       0.021012         0.5718
  80   0.0000       0.023370         0.6359
  81   0.0000       0.031252         0.8504

                 SPIN DOWN ORBITALS
  NO   OCC          E(Eh)            E(eV)
   0   1.0000    -261.548241     -7117.0895
   1   1.0000    -104.777185     -2851.1322
   2   1.0000    -104.773070     -2851.0202
   3   1.0000    -104.771674     -2850.9822
   4   1.0000     -32.057606      -872.3318
   5   1.0000     -27.535656      -749.2833
   6   1.0000     -27.535521      -749.2796
   7   1.0000     -27.535067      -749.2673
   8   1.0000     -20.550307      -559.2023
   9   1.0000     -11.385525      -309.8159
  10   1.0000     -11.361036      -309.1495
  11   1.0000     -11.280056      -306.9459
  12   1.0000     -11.277949      -306.8886
  13   1.0000     -11.262258      -306.4616
  14   1.0000     -11.254862      -306.2604
  15   1.0000     -11.253188      -306.2148
  16   1.0000     -11.247124      -306.0498
  17   1.0000     -10.503689      -285.8199
  18   1.0000     -10.499553      -285.7074
  19   1.0000     -10.498183      -285.6701
  20   1.0000      -7.969541      -216.8622
  21   1.0000      -7.969071      -216.8494
  22   1.0000      -7.968998      -216.8475
  23   1.0000      -7.965531      -216.7531
  24   1.0000      -7.964830      -216.7340
  25   1.0000      -7.964740      -216.7316
  26   1.0000      -7.964121      -216.7147
  27   1.0000      -7.963424      -216.6958
  28   1.0000      -7.963343      -216.6936
  29   1.0000      -4.132684      -112.4561
  30   1.0000      -2.654491       -72.2324
  31   1.0000      -2.654423       -72.2305
  32   1.0000      -2.653530       -72.2062
  33   1.0000      -1.383867       -37.6569
  34   1.0000      -1.177454       -32.0402
  35   1.0000      -1.080957       -29.4143
  36   1.0000      -1.042327       -28.3632
  37   1.0000      -1.034659       -28.1545
  38   1.0000      -1.022984       -27.8368
  39   1.0000      -1.019796       -27.7500
  40   1.0000      -1.000643       -27.2289
  41   1.0000      -0.980320       -26.6759
  42   1.0000      -0.928769       -25.2731
  43   1.0000      -0.798528       -21.7291
  44   1.0000      -0.766695       -20.8628
  45   1.0000      -0.699820       -19.0431
  46   1.0000      -0.689613       -18.7653
  47   1.0000      -0.674671       -18.3587
  48   1.0000      -0.655850       -17.8466
  49   1.0000      -0.648514       -17.6470
  50   1.0000      -0.626825       -17.0568
  51   1.0000      -0.598562       -16.2877
  52   1.0000      -0.596286       -16.2258
  53   1.0000      -0.587570       -15.9886
  54   1.0000      -0.576968       -15.7001
  55   1.0000      -0.574160       -15.6237
  56   1.0000      -0.562314       -15.3013
  57   1.0000      -0.554176       -15.0799
  58   1.0000      -0.548261       -14.9189
  59   1.0000      -0.533287       -14.5115
  60   1.0000      -0.526254       -14.3201
  61   1.0000      -0.504930       -13.7399
  62   1.0000      -0.473899       -12.8955
  63   1.0000      -0.466842       -12.7034
  64   1.0000      -0.462516       -12.5857
  65   1.0000      -0.438362       -11.9284
  66   1.0000      -0.435305       -11.8452
  67   1.0000      -0.433390       -11.7931
  68   1.0000      -0.422200       -11.4886
  69   1.0000      -0.413306       -11.2466
  70   1.0000      -0.400333       -10.8936
  71   1.0000      -0.386122       -10.5069
  72   0.0000       0.008071         0.2196
  73   0.0000       0.018755         0.5104
  74   0.0000       0.021002         0.5715
  75   0.0000       0.023138         0.6296
  76   0.0000       0.031220         0.8495

E(0)                                       ...  -3028.426265068
E(0)                                       ...  -3028.426265068
E(CORR)(strong-pairs)                      ...     -2.873667624
E(CORR)(weak-pairs)                        ...     -0.035921667
E(CORR)(corrected)                         ...     -2.909589291
E(TOT)                                     ...  -3031.335854359
E(CCSD(T))                                 ...  -3031.455604723
FINAL SINGLE POINT ENERGY     -3031.455604723478

DIPOLE MOMENT
-------------
                                X             Y             Z
Electronic contribution:     40.37880       5.06519       1.64458
Nuclear contribution   :    -45.11620      -5.22015      -2.10527
                        -----------------------------------------
Total Dipole Moment    :     -4.73741      -0.15496      -0.46069
                        -----------------------------------------
Magnitude (a.u.)       :      4.76228
Magnitude (Debye)      :     12.10474

Rotational constants in cm-1:     0.019117     0.011500     0.010720
Rotational constants in MHz :   573.113873   344.747186   321.362836

                             ****ORCA TERMINATED NORMALLY****
TOTAL RUN TIME: 0 days 21 hours 0 minutes 1 seconds 729 msec
