                         Program Version 4.1.2  - RELEASE  -
|  1> ! aug-cc-pVTZ aug-cc-pVTZ/C DLPNO-CCSD(T1) TightSCF NormalPNO UNO MiniPrint AutoAux
|  2> %pal nproc 10 end
|  3> %maxcore 20000
|  4> %mdci
|  5>      density none
|  6> end
|  7>
|  8> * xyz 0 6
|  9>  O     -0.32995400     -0.12128300     -0.62481200
| 10>  C     -1.26371300     -1.03949300     -0.55041200
| 11>  C     -2.97756000     -0.12287500      0.10153500
| 12>  C     -2.31389800      1.05607600     -0.17721100
| 13>  C     -2.34677900      1.68236000     -1.52910400
| 14> Fe      1.42573500      0.07081800      0.03699500
| 15> Cl      2.00057600      2.05219100     -0.72617100
| 16>  C     -1.56453000      1.81758200      0.86094100
| 17> Cl      2.52063400     -1.65808000     -0.76842900
| 18> Cl      1.30012400      0.01275400      2.24953600
| 19>  H     -3.65214900     -0.48162200     -0.67271100
| 20>  H     -2.27216700      2.52940600      1.31396000
| 21>  H     -1.16968200      1.19121400      1.66092100
| 22>  H     -0.74632300      2.39339300      0.42154800
| 23>  H     -2.69725100      2.71731000     -1.42082500
| 24>  H     -1.32732100      1.73598600     -1.92848700
| 25>  H     -3.00307900      1.16485900     -2.23090600
| 26>  C     -3.35391500     -0.54299100      1.50484300
| 27>  H     -4.24098800      0.01787100      1.82551400
| 28>  H     -3.61080300     -1.60412700      1.54645800
| 29>  H     -2.56428300     -0.35549200      2.23517900
| 30>  C     -1.07855700     -2.10203500      0.50777400
| 31>  H     -1.92782200     -2.78352400      0.57655800
| 32>  H     -0.19873100     -2.67717700      0.18587600
| 33>  H     -0.84430000     -1.67577400      1.48327500
| 34>  C     -1.72448700     -1.55861100     -1.89784300
| 35>  H     -0.87698800     -2.12863200     -2.30062000
| 36>  H     -2.58799800     -2.22309600     -1.81868700
| 37>  H     -1.93163700     -0.74837300     -2.59748200
| 38> *
| 39>
| 40>
| 41>                          ****END OF INPUT****

CARTESIAN COORDINATES (ANGSTROEM)
---------------------------------
  O     -0.329954   -0.121283   -0.624812
  C     -1.263713   -1.039493   -0.550412
  C     -2.977560   -0.122875    0.101535
  C     -2.313898    1.056076   -0.177211
  C     -2.346779    1.682360   -1.529104
  Fe     1.425735    0.070818    0.036995
  Cl     2.000576    2.052191   -0.726171
  C     -1.564530    1.817582    0.860941
  Cl     2.520634   -1.658080   -0.768429
  Cl     1.300124    0.012754    2.249536
  H     -3.652149   -0.481622   -0.672711
  H     -2.272167    2.529406    1.313960
  H     -1.169682    1.191214    1.660921
  H     -0.746323    2.393393    0.421548
  H     -2.697251    2.717310   -1.420825
  H     -1.327321    1.735986   -1.928487
  H     -3.003079    1.164859   -2.230906
  C     -3.353915   -0.542991    1.504843
  H     -4.240988    0.017871    1.825514
  H     -3.610803   -1.604127    1.546458
  H     -2.564283   -0.355492    2.235179
  C     -1.078557   -2.102035    0.507774
  H     -1.927822   -2.783524    0.576558
  H     -0.198731   -2.677177    0.185876
  H     -0.844300   -1.675774    1.483275
  C     -1.724487   -1.558611   -1.897843
  H     -0.876988   -2.128632   -2.300620
  H     -2.587998   -2.223096   -1.818687
  H     -1.931637   -0.748373   -2.597482

ORBITAL ENERGIES
----------------
                 SPIN UP ORBITALS
  NO   OCC          E(Eh)            E(eV)
   0   1.0000    -261.555592     -7117.2895
   1   1.0000    -104.779809     -2851.2035
   2   1.0000    -104.777629     -2851.1442
   3   1.0000    -104.776938     -2851.1254
   4   1.0000     -32.223466      -876.8451
   5   1.0000     -27.699509      -753.7419
   6   1.0000     -27.699080      -753.7303
   7   1.0000     -27.698884      -753.7249
   8   1.0000     -20.562678      -559.5389
   9   1.0000     -11.397858      -310.1515
  10   1.0000     -11.345230      -308.7194
  11   1.0000     -11.273488      -306.7672
  12   1.0000     -11.266701      -306.5825
  13   1.0000     -11.260414      -306.4114
  14   1.0000     -11.257491      -306.3319
  15   1.0000     -11.257041      -306.3197
  16   1.0000     -11.254071      -306.2388
  17   1.0000     -10.506417      -285.8941
  18   1.0000     -10.504180      -285.8333
  19   1.0000     -10.503515      -285.8152
  20   1.0000      -7.973296      -216.9644
  21   1.0000      -7.972459      -216.9416
  22   1.0000      -7.972418      -216.9405
  23   1.0000      -7.970992      -216.9017
  24   1.0000      -7.970363      -216.8846
  25   1.0000      -7.970286      -216.8825
  26   1.0000      -7.970204      -216.8803
  27   1.0000      -7.969614      -216.8642
  28   1.0000      -7.969533      -216.8620
  29   1.0000      -4.578814      -124.5959
  30   1.0000      -3.191560       -86.8468
  31   1.0000      -3.190752       -86.8248
  32   1.0000      -3.190309       -86.8127
  33   1.0000      -1.410444       -38.3801
  34   1.0000      -1.169079       -31.8123
  35   1.0000      -1.087010       -29.5790
  36   1.0000      -1.051331       -28.6082
  37   1.0000      -1.045905       -28.4605
  38   1.0000      -1.043828       -28.4040
  39   1.0000      -1.040257       -28.3068
  40   1.0000      -0.996767       -27.1234
  41   1.0000      -0.985611       -26.8198
  42   1.0000      -0.930799       -25.3283
  43   1.0000      -0.919395       -25.0180
  44   1.0000      -0.908304       -24.7162
  45   1.0000      -0.908187       -24.7130
  46   1.0000      -0.898939       -24.4614
  47   1.0000      -0.898741       -24.4560
  48   1.0000      -0.789294       -21.4778
  49   1.0000      -0.759918       -20.6784
  50   1.0000      -0.694986       -18.9115
  51   1.0000      -0.693008       -18.8577
  52   1.0000      -0.679126       -18.4800
  53   1.0000      -0.660839       -17.9823
  54   1.0000      -0.645936       -17.5768
  55   1.0000      -0.622781       -16.9467
  56   1.0000      -0.602117       -16.3844
  57   1.0000      -0.594475       -16.1765
  58   1.0000      -0.586480       -15.9589
  59   1.0000      -0.577885       -15.7250
  60   1.0000      -0.573821       -15.6145
  61   1.0000      -0.564141       -15.3511
  62   1.0000      -0.554451       -15.0874
  63   1.0000      -0.551752       -15.0139
  64   1.0000      -0.540881       -14.7181
  65   1.0000      -0.524403       -14.2697
  66   1.0000      -0.515417       -14.0252
  67   1.0000      -0.481228       -13.0949
  68   1.0000      -0.465462       -12.6659
  69   1.0000      -0.456556       -12.4235
  70   1.0000      -0.432409       -11.7664
  71   1.0000      -0.428347       -11.6559
  72   1.0000      -0.426695       -11.6110
  73   1.0000      -0.418451       -11.3866
  74   1.0000      -0.416934       -11.3454
  75   1.0000      -0.416122       -11.3233
  76   1.0000      -0.382704       -10.4139
  77   0.0000       0.009884         0.2689
  78   0.0000       0.020489         0.5575
  79   0.0000       0.022000         0.5986
  80   0.0000       0.030086         0.8187
  81   0.0000       0.036732         0.9995

                 SPIN DOWN ORBITALS
  NO   OCC          E(Eh)            E(eV)
   0   1.0000    -261.552043     -7117.1929
   1   1.0000    -104.778424     -2851.1659
   2   1.0000    -104.776235     -2851.1063
   3   1.0000    -104.775484     -2851.0859
   4   1.0000     -32.061412      -872.4354
   5   1.0000     -27.539423      -749.3858
   6   1.0000     -27.539313      -749.3828
   7   1.0000     -27.538922      -749.3722
   8   1.0000     -20.557712      -559.4038
   9   1.0000     -11.397804      -310.1500
  10   1.0000     -11.345166      -308.7177
  11   1.0000     -11.273249      -306.7607
  12   1.0000     -11.266702      -306.5825
  13   1.0000     -11.260309      -306.4086
  14   1.0000     -11.257517      -306.3326
  15   1.0000     -11.257073      -306.3205
  16   1.0000     -11.254041      -306.2380
  17   1.0000     -10.504930      -285.8537
  18   1.0000     -10.502690      -285.7927
  19   1.0000     -10.501958      -285.7728
  20   1.0000      -7.970808      -216.8967
  21   1.0000      -7.970259      -216.8818
  22   1.0000      -7.970185      -216.8797
  23   1.0000      -7.968666      -216.8384
  24   1.0000      -7.967957      -216.8191
  25   1.0000      -7.967880      -216.8170
  26   1.0000      -7.967863      -216.8166
  27   1.0000      -7.967211      -216.7988
  28   1.0000      -7.967125      -216.7965
  29   1.0000      -4.136514      -112.5603
  30   1.0000      -2.658229       -72.3341
  31   1.0000      -2.658192       -72.3331
  32   1.0000      -2.657541       -72.3154
  33   1.0000      -1.397791       -38.0358
  34   1.0000      -1.168071       -31.7848
  35   1.0000      -1.084295       -29.5052
  36   1.0000      -1.039577       -28.2883
  37   1.0000      -1.036850       -28.2141
  38   1.0000      -1.025191       -27.8969
  39   1.0000      -1.023238       -27.8437
  40   1.0000      -0.996227       -27.1087
  41   1.0000      -0.985234       -26.8096
  42   1.0000      -0.926873       -25.2215
  43   1.0000      -0.802683       -21.8421
  44   1.0000      -0.760410       -20.6918
  45   1.0000      -0.694350       -18.8942
  46   1.0000      -0.693982       -18.8842
  47   1.0000      -0.680614       -18.5204
  48   1.0000      -0.659971       -17.9587
  49   1.0000      -0.645726       -17.5711
  50   1.0000      -0.622644       -16.9430
  51   1.0000      -0.601207       -16.3597
  52   1.0000      -0.594406       -16.1746
  53   1.0000      -0.586411       -15.9571
  54   1.0000      -0.577576       -15.7167
  55   1.0000      -0.573612       -15.6088
  56   1.0000      -0.564126       -15.3507
  57   1.0000      -0.553676       -15.0663
  58   1.0000      -0.551498       -15.0070
  59   1.0000      -0.535791       -14.5796
  60   1.0000      -0.524168       -14.2633
  61   1.0000      -0.507419       -13.8076
  62   1.0000      -0.478964       -13.0333
  63   1.0000      -0.469743       -12.7824
  64   1.0000      -0.466805       -12.7024
  65   1.0000      -0.440601       -11.9894
  66   1.0000      -0.437556       -11.9065
  67   1.0000      -0.435956       -11.8630
  68   1.0000      -0.423205       -11.5160
  69   1.0000      -0.416002       -11.3200
  70   1.0000      -0.402652       -10.9567
  71   1.0000      -0.379995       -10.3402
  72   0.0000       0.009882         0.2689
  73   0.0000       0.020457         0.5567
  74   0.0000       0.021979         0.5981
  75   0.0000       0.030103         0.8191
  76   0.0000       0.036419         0.9910

E(0)                                       ...  -3028.425225144
E(0)                                       ...  -3028.425225144
E(CORR)(strong-pairs)                      ...     -2.872689876
E(CORR)(weak-pairs)                        ...     -0.036183116
E(CORR)(corrected)                         ...     -2.908872992
E(TOT)                                     ...  -3031.334098136
E(CCSD(T))                                 ...  -3031.453770616
FINAL SINGLE POINT ENERGY     -3031.453770616287

DIPOLE MOMENT
-------------
                                X             Y             Z
Electronic contribution:     41.26603       3.40865       2.31770
Nuclear contribution   :    -45.70978      -3.64477      -2.84422
                        -----------------------------------------
Total Dipole Moment    :     -4.44375      -0.23612      -0.52653
                        -----------------------------------------
Magnitude (a.u.)       :      4.48106
Magnitude (Debye)      :     11.38995

Rotational constants in cm-1:     0.019276     0.011372     0.010621
Rotational constants in MHz :   577.891299   340.932167   318.407578

                             ****ORCA TERMINATED NORMALLY****
TOTAL RUN TIME: 0 days 20 hours 56 minutes 42 seconds 503 msec
