                         Program Version 4.1.2  - RELEASE  -
|  1> ! aug-cc-pVTZ aug-cc-pVTZ/C DLPNO-CCSD(T1) TightSCF NormalPNO UNO MiniPrint AutoAux
|  2> %pal nproc 10 end
|  3> %maxcore 20000
|  4> %mdci
|  5>      density none
|  6> end
|  7>
|  8> * xyz 0 6
|  9>  O     -0.33491300     -0.27544300     -0.61261100
| 10>  C     -1.40160500     -1.19002100     -0.43845100
| 11>  C     -2.77394100     -0.14943400     -0.12801000
| 12>  C     -2.05078400      1.13349200     -0.24760900
| 13>  C     -1.94246100      1.81598300     -1.55179200
| 14> Fe      1.37447100      0.03486500      0.02505400
| 15> Cl      1.73754400      2.07986900     -0.78095300
| 16>  C     -1.57032000      1.85277000      0.94667100
| 17> Cl      2.69014100     -1.57089000     -0.68679300
| 18> Cl      1.24025900      0.10204700      2.25035700
| 19>  H     -3.44061400     -0.27984500     -0.98407500
| 20>  H     -2.45173400      2.35664600      1.37944200
| 21>  H     -1.18124700      1.17733600      1.71247300
| 22>  H     -0.81765200      2.60338500      0.69981100
| 23>  H     -2.60838200      2.69453400     -1.51186500
| 24>  H     -0.92233600      2.19318500     -1.68890700
| 25>  H     -2.24072900      1.18547100     -2.38962600
| 26>  C     -3.50976400     -0.41383700      1.17973100
| 27>  H     -4.32590800      0.30415900      1.32234900
| 28>  H     -3.95272400     -1.41305600      1.15679900
| 29>  H     -2.85373300     -0.36062700      2.05111600
| 30>  C     -1.15476100     -2.13574300      0.72088200
| 31>  H     -1.98730600     -2.83066800      0.86490800
| 32>  H     -0.25791900     -2.72051800      0.48199200
| 33>  H     -0.95484000     -1.60132100      1.65104000
| 34>  C     -1.65152300     -1.92445200     -1.74491500
| 35>  H     -0.75727800     -2.51009100     -1.98593900
| 36>  H     -2.50936600     -2.60129400     -1.66867100
| 37>  H     -1.81926800     -1.22020600     -2.56480200
| 38> *
| 39>
| 40>
| 41>                          ****END OF INPUT****

CARTESIAN COORDINATES (ANGSTROEM)
---------------------------------
  O     -0.334913   -0.275443   -0.612611
  C     -1.401605   -1.190021   -0.438451
  C     -2.773941   -0.149434   -0.128010
  C     -2.050784    1.133492   -0.247609
  C     -1.942461    1.815983   -1.551792
  Fe     1.374471    0.034865    0.025054
  Cl     1.737544    2.079869   -0.780953
  C     -1.570320    1.852770    0.946671
  Cl     2.690141   -1.570890   -0.686793
  Cl     1.240259    0.102047    2.250357
  H     -3.440614   -0.279845   -0.984075
  H     -2.451734    2.356646    1.379442
  H     -1.181247    1.177336    1.712473
  H     -0.817652    2.603385    0.699811
  H     -2.608382    2.694534   -1.511865
  H     -0.922336    2.193185   -1.688907
  H     -2.240729    1.185471   -2.389626
  C     -3.509764   -0.413837    1.179731
  H     -4.325908    0.304159    1.322349
  H     -3.952724   -1.413056    1.156799
  H     -2.853733   -0.360627    2.051116
  C     -1.154761   -2.135743    0.720882
  H     -1.987306   -2.830668    0.864908
  H     -0.257919   -2.720518    0.481992
  H     -0.954840   -1.601321    1.651040
  C     -1.651523   -1.924452   -1.744915
  H     -0.757278   -2.510091   -1.985939
  H     -2.509366   -2.601294   -1.668671
  H     -1.819268   -1.220206   -2.564802

ORBITAL ENERGIES
----------------
                 SPIN UP ORBITALS
  NO   OCC          E(Eh)            E(eV)
   0   1.0000    -261.544453     -7116.9864
   1   1.0000    -104.773948     -2851.0441
   2   1.0000    -104.773235     -2851.0247
   3   1.0000    -104.768996     -2850.9093
   4   1.0000     -32.212325      -876.5419
   5   1.0000     -27.688242      -753.4354
   6   1.0000     -27.688082      -753.4310
   7   1.0000     -27.687759      -753.4222
   8   1.0000     -20.543239      -559.0099
   9   1.0000     -11.409190      -310.4599
  10   1.0000     -11.347494      -308.7810
  11   1.0000     -11.293107      -307.3011
  12   1.0000     -11.284285      -307.0610
  13   1.0000     -11.280005      -306.9445
  14   1.0000     -11.265027      -306.5370
  15   1.0000     -11.239857      -305.8521
  16   1.0000     -11.234669      -305.7109
  17   1.0000     -10.500462      -285.7321
  18   1.0000     -10.499857      -285.7156
  19   1.0000     -10.495552      -285.5985
  20   1.0000      -7.967309      -216.8015
  21   1.0000      -7.966755      -216.7864
  22   1.0000      -7.966531      -216.7803
  23   1.0000      -7.966441      -216.7779
  24   1.0000      -7.965876      -216.7625
  25   1.0000      -7.965843      -216.7616
  26   1.0000      -7.962348      -216.6665
  27   1.0000      -7.961677      -216.6482
  28   1.0000      -7.961586      -216.6458
  29   1.0000      -4.567808      -124.2964
  30   1.0000      -3.180275       -86.5397
  31   1.0000      -3.180010       -86.5325
  32   1.0000      -3.179482       -86.5181
  33   1.0000      -1.353964       -36.8432
  34   1.0000      -1.184562       -32.2336
  35   1.0000      -1.089144       -29.6371
  36   1.0000      -1.044516       -28.4227
  37   1.0000      -1.039760       -28.2933
  38   1.0000      -1.039239       -28.2791
  39   1.0000      -1.036161       -28.1954
  40   1.0000      -1.018332       -27.7102
  41   1.0000      -0.967169       -26.3180
  42   1.0000      -0.933378       -25.3985
  43   1.0000      -0.904179       -24.6040
  44   1.0000      -0.897349       -24.4181
  45   1.0000      -0.897298       -24.4167
  46   1.0000      -0.889528       -24.2053
  47   1.0000      -0.889069       -24.1928
  48   1.0000      -0.794805       -21.6277
  49   1.0000      -0.760735       -20.7007
  50   1.0000      -0.704073       -19.1588
  51   1.0000      -0.689692       -18.7675
  52   1.0000      -0.674073       -18.3425
  53   1.0000      -0.637860       -17.3571
  54   1.0000      -0.632850       -17.2207
  55   1.0000      -0.627564       -17.0769
  56   1.0000      -0.601764       -16.3748
  57   1.0000      -0.600215       -16.3327
  58   1.0000      -0.595632       -16.2080
  59   1.0000      -0.582234       -15.8434
  60   1.0000      -0.578053       -15.7296
  61   1.0000      -0.557802       -15.1786
  62   1.0000      -0.550818       -14.9885
  63   1.0000      -0.539729       -14.6868
  64   1.0000      -0.529654       -14.4126
  65   1.0000      -0.523410       -14.2427
  66   1.0000      -0.504109       -13.7175
  67   1.0000      -0.471343       -12.8259
  68   1.0000      -0.461684       -12.5631
  69   1.0000      -0.447156       -12.1677
  70   1.0000      -0.429014       -11.6741
  71   1.0000      -0.425224       -11.5709
  72   1.0000      -0.420341       -11.4381
  73   1.0000      -0.414007       -11.2657
  74   1.0000      -0.411885       -11.2080
  75   1.0000      -0.409347       -11.1389
  76   1.0000      -0.409118       -11.1327
  77   0.0000       0.005468         0.1488
  78   0.0000       0.016947         0.4611
  79   0.0000       0.020916         0.5691
  80   0.0000       0.023431         0.6376
  81   0.0000       0.030319         0.8250

                 SPIN DOWN ORBITALS
  NO   OCC          E(Eh)            E(eV)
   0   1.0000    -261.540912     -7116.8900
   1   1.0000    -104.772683     -2851.0097
   2   1.0000    -104.771907     -2850.9885
   3   1.0000    -104.767563     -2850.8703
   4   1.0000     -32.050301      -872.1330
   5   1.0000     -27.528446      -749.0871
   6   1.0000     -27.528212      -749.0807
   7   1.0000     -27.527654      -749.0655
   8   1.0000     -20.536998      -558.8401
   9   1.0000     -11.409219      -310.4606
  10   1.0000     -11.347285      -308.7753
  11   1.0000     -11.292944      -307.2966
  12   1.0000     -11.284267      -307.0605
  13   1.0000     -11.280020      -306.9450
  14   1.0000     -11.265034      -306.5372
  15   1.0000     -11.239782      -305.8500
  16   1.0000     -11.234642      -305.7102
  17   1.0000     -10.499100      -285.6950
  18   1.0000     -10.498425      -285.6767
  19   1.0000     -10.494020      -285.5568
  20   1.0000      -7.965032      -216.7395
  21   1.0000      -7.964514      -216.7255
  22   1.0000      -7.964423      -216.7230
  23   1.0000      -7.964282      -216.7191
  24   1.0000      -7.963821      -216.7066
  25   1.0000      -7.963752      -216.7047
  26   1.0000      -7.960013      -216.6030
  27   1.0000      -7.959239      -216.5819
  28   1.0000      -7.959174      -216.5801
  29   1.0000      -4.125660      -112.2649
  30   1.0000      -2.647570       -72.0441
  31   1.0000      -2.647477       -72.0415
  32   1.0000      -2.646673       -72.0196
  33   1.0000      -1.337549       -36.3966
  34   1.0000      -1.183215       -32.1969
  35   1.0000      -1.086542       -29.5663
  36   1.0000      -1.037768       -28.2391
  37   1.0000      -1.030749       -28.0481
  38   1.0000      -1.021582       -27.7987
  39   1.0000      -1.017356       -27.6837
  40   1.0000      -1.015489       -27.6329
  41   1.0000      -0.966438       -26.2981
  42   1.0000      -0.930909       -25.3313
  43   1.0000      -0.798628       -21.7318
  44   1.0000      -0.766766       -20.8648
  45   1.0000      -0.704335       -19.1659
  46   1.0000      -0.689098       -18.7513
  47   1.0000      -0.675059       -18.3693
  48   1.0000      -0.640187       -17.4204
  49   1.0000      -0.632832       -17.2202
  50   1.0000      -0.625490       -17.0205
  51   1.0000      -0.601981       -16.3807
  52   1.0000      -0.599308       -16.3080
  53   1.0000      -0.595210       -16.1965
  54   1.0000      -0.581532       -15.8243
  55   1.0000      -0.576876       -15.6976
  56   1.0000      -0.557606       -15.1732
  57   1.0000      -0.548736       -14.9319
  58   1.0000      -0.539241       -14.6735
  59   1.0000      -0.527719       -14.3600
  60   1.0000      -0.517593       -14.0844
  61   1.0000      -0.499300       -13.5866
  62   1.0000      -0.468972       -12.7614
  63   1.0000      -0.463414       -12.6101
  64   1.0000      -0.455611       -12.3978
  65   1.0000      -0.435353       -11.8466
  66   1.0000      -0.434002       -11.8098
  67   1.0000      -0.430514       -11.7149
  68   1.0000      -0.429253       -11.6806
  69   1.0000      -0.409801       -11.1513
  70   1.0000      -0.399203       -10.8629
  71   1.0000      -0.397784       -10.8243
  72   0.0000       0.005435         0.1479
  73   0.0000       0.016605         0.4519
  74   0.0000       0.020895         0.5686
  75   0.0000       0.023143         0.6297
  76   0.0000       0.030353         0.8259

E(0)                                       ...  -3028.431036388
E(0)                                       ...  -3028.431036388
E(CORR)(strong-pairs)                      ...     -2.868977547
E(CORR)(weak-pairs)                        ...     -0.035734155
E(CORR)(corrected)                         ...     -2.904711702
E(TOT)                                     ...  -3031.335748090
E(CCSD(T))                                 ...  -3031.453521726
FINAL SINGLE POINT ENERGY     -3031.453521725710

DIPOLE MOMENT
-------------
                                X             Y             Z
Electronic contribution:     39.84559       4.44198       2.18165
Nuclear contribution   :    -44.75974      -3.88767      -2.60068
                        -----------------------------------------
Total Dipole Moment    :     -4.91416       0.55431      -0.41903
                        -----------------------------------------
Magnitude (a.u.)       :      4.96304
Magnitude (Debye)      :     12.61506

Rotational constants in cm-1:     0.018985     0.011910     0.010757
Rotational constants in MHz :   569.161932   357.064048   322.501129

                             ****ORCA TERMINATED NORMALLY****
TOTAL RUN TIME: 0 days 20 hours 28 minutes 29 seconds 504 msec
