                         Program Version 4.1.2  - RELEASE  -
|  1> ! aug-cc-pVTZ aug-cc-pVTZ/C DLPNO-CCSD(T1) TightSCF NormalPNO UNO MiniPrint AutoAux
|  2> %pal nproc 10 end
|  3> %maxcore 20000
|  4> %mdci
|  5>      density none
|  6> end
|  7>
|  8> * xyz 0 6
|  9>  O     -0.28246400     -0.22680000     -0.79022700
| 10>  C     -1.15228500     -1.14999100     -0.62930400
| 11>  C     -2.87304900     -0.22762800      0.48905100
| 12>  C     -2.55268600      0.95641300     -0.10572800
| 13>  C     -3.07402400      1.33270300     -1.45878400
| 14> Fe      1.44141700      0.13107500     -0.00483900
| 15> Cl      2.03434500      2.04909500     -0.86831800
| 16>  C     -1.64886400      1.96930400      0.51559500
| 17> Cl      2.63622700     -1.60252100     -0.61450700
| 18> Cl      1.16462200      0.21633900      2.18436000
| 19>  H     -3.62359700     -0.83813900     -0.00983300
| 20>  H     -2.21139000      2.89724100      0.68644000
| 21>  H     -1.21071700      1.65197600      1.46029000
| 22>  H     -0.83711900      2.22375700     -0.17740800
| 23>  H     -3.57410800      2.30746300     -1.39571900
| 24>  H     -2.24270800      1.45860600     -2.16508800
| 25>  H     -3.78766900      0.60884400     -1.85821200
| 26>  C     -2.69127500     -0.50808900      1.96315400
| 27>  H     -3.45774100      0.03278600      2.53285500
| 28>  H     -2.81838600     -1.57001500      2.18545500
| 29>  H     -1.71628000     -0.19627100      2.34393600
| 30>  C     -0.88570700     -2.23136900      0.38632500
| 31>  H     -1.75355300     -2.87105000      0.55304300
| 32>  H     -0.08245600     -2.84174300     -0.05097100
| 33>  H     -0.51273100     -1.83425300      1.32951300
| 34>  C     -1.87776300     -1.59351700     -1.87797100
| 35>  H     -1.17804500     -2.26180900     -2.39834400
| 36>  H     -2.78713100     -2.15725300     -1.66306200
| 37>  H     -2.08786600     -0.76015400     -2.54540200
| 38> *
| 39>
| 40>
| 41>                          ****END OF INPUT****

CARTESIAN COORDINATES (ANGSTROEM)
---------------------------------
  O     -0.282464   -0.226800   -0.790227
  C     -1.152285   -1.149991   -0.629304
  C     -2.873049   -0.227628    0.489051
  C     -2.552686    0.956413   -0.105728
  C     -3.074024    1.332703   -1.458784
  Fe     1.441417    0.131075   -0.004839
  Cl     2.034345    2.049095   -0.868318
  C     -1.648864    1.969304    0.515595
  Cl     2.636227   -1.602521   -0.614507
  Cl     1.164622    0.216339    2.184360
  H     -3.623597   -0.838139   -0.009833
  H     -2.211390    2.897241    0.686440
  H     -1.210717    1.651976    1.460290
  H     -0.837119    2.223757   -0.177408
  H     -3.574108    2.307463   -1.395719
  H     -2.242708    1.458606   -2.165088
  H     -3.787669    0.608844   -1.858212
  C     -2.691275   -0.508089    1.963154
  H     -3.457741    0.032786    2.532855
  H     -2.818386   -1.570015    2.185455
  H     -1.716280   -0.196271    2.343936
  C     -0.885707   -2.231369    0.386325
  H     -1.753553   -2.871050    0.553043
  H     -0.082456   -2.841743   -0.050971
  H     -0.512731   -1.834253    1.329513
  C     -1.877763   -1.593517   -1.877971
  H     -1.178045   -2.261809   -2.398344
  H     -2.787131   -2.157253   -1.663062
  H     -2.087866   -0.760154   -2.545402

ORBITAL ENERGIES
----------------
                 SPIN UP ORBITALS
  NO   OCC          E(Eh)            E(eV)
   0   1.0000    -261.565754     -7117.5660
   1   1.0000    -104.787383     -2851.4097
   2   1.0000    -104.783391     -2851.3010
   3   1.0000    -104.782315     -2851.2718
   4   1.0000     -32.233569      -877.1200
   5   1.0000     -27.709822      -754.0226
   6   1.0000     -27.709043      -754.0014
   7   1.0000     -27.708859      -753.9964
   8   1.0000     -20.591398      -560.3204
   9   1.0000     -11.413185      -310.5685
  10   1.0000     -11.303145      -307.5742
  11   1.0000     -11.269682      -306.6636
  12   1.0000     -11.263691      -306.5006
  13   1.0000     -11.259284      -306.3807
  14   1.0000     -11.258172      -306.3504
  15   1.0000     -11.244020      -305.9653
  16   1.0000     -11.241757      -305.9038
  17   1.0000     -10.514058      -286.1021
  18   1.0000     -10.510054      -285.9931
  19   1.0000     -10.508933      -285.9626
  20   1.0000      -7.980920      -217.1719
  21   1.0000      -7.980106      -217.1497
  22   1.0000      -7.980073      -217.1488
  23   1.0000      -7.976917      -217.0629
  24   1.0000      -7.976151      -217.0421
  25   1.0000      -7.976089      -217.0404
  26   1.0000      -7.975736      -217.0308
  27   1.0000      -7.975050      -217.0121
  28   1.0000      -7.974989      -217.0105
  29   1.0000      -4.588663      -124.8639
  30   1.0000      -3.201580       -87.1194
  31   1.0000      -3.200318       -87.0851
  32   1.0000      -3.200070       -87.0783
  33   1.0000      -1.437038       -39.1038
  34   1.0000      -1.148839       -31.2615
  35   1.0000      -1.092079       -29.7170
  36   1.0000      -1.059341       -28.8261
  37   1.0000      -1.053529       -28.6680
  38   1.0000      -1.050771       -28.5929
  39   1.0000      -1.031208       -28.0606
  40   1.0000      -1.000893       -27.2357
  41   1.0000      -0.974595       -26.5201
  42   1.0000      -0.933760       -25.4089
  43   1.0000      -0.917766       -24.9737
  44   1.0000      -0.917707       -24.9721
  45   1.0000      -0.911206       -24.7952
  46   1.0000      -0.907806       -24.7027
  47   1.0000      -0.907088       -24.6831
  48   1.0000      -0.801037       -21.7973
  49   1.0000      -0.746636       -20.3170
  50   1.0000      -0.697256       -18.9733
  51   1.0000      -0.689675       -18.7670
  52   1.0000      -0.683541       -18.6001
  53   1.0000      -0.667429       -18.1617
  54   1.0000      -0.635674       -17.2976
  55   1.0000      -0.622527       -16.9398
  56   1.0000      -0.604720       -16.4553
  57   1.0000      -0.596051       -16.2194
  58   1.0000      -0.582651       -15.8547
  59   1.0000      -0.574201       -15.6248
  60   1.0000      -0.564710       -15.3665
  61   1.0000      -0.557955       -15.1827
  62   1.0000      -0.553171       -15.0526
  63   1.0000      -0.547271       -14.8920
  64   1.0000      -0.538764       -14.6605
  65   1.0000      -0.526829       -14.3357
  66   1.0000      -0.509362       -13.8604
  67   1.0000      -0.491128       -13.3643
  68   1.0000      -0.470737       -12.8094
  69   1.0000      -0.467316       -12.7163
  70   1.0000      -0.439048       -11.9471
  71   1.0000      -0.434480       -11.8228
  72   1.0000      -0.432733       -11.7753
  73   1.0000      -0.423932       -11.5358
  74   1.0000      -0.422738       -11.5033
  75   1.0000      -0.421723       -11.4757
  76   1.0000      -0.371689       -10.1142
  77   0.0000       0.011637         0.3167
  78   0.0000       0.021868         0.5951
  79   0.0000       0.023105         0.6287
  80   0.0000       0.029885         0.8132
  81   0.0000       0.038025         1.0347

                 SPIN DOWN ORBITALS
  NO   OCC          E(Eh)            E(eV)
   0   1.0000    -261.562192     -7117.4691
   1   1.0000    -104.785959     -2851.3709
   2   1.0000    -104.781878     -2851.2598
   3   1.0000    -104.780825     -2851.2312
   4   1.0000     -32.071523      -872.7105
   5   1.0000     -27.549462      -749.6590
   6   1.0000     -27.549402      -749.6573
   7   1.0000     -27.549166      -749.6509
   8   1.0000     -20.587287      -560.2086
   9   1.0000     -11.413106      -310.5664
  10   1.0000     -11.303005      -307.5704
  11   1.0000     -11.269568      -306.6605
  12   1.0000     -11.263677      -306.5002
  13   1.0000     -11.259289      -306.3808
  14   1.0000     -11.258190      -306.3509
  15   1.0000     -11.244018      -305.9653
  16   1.0000     -11.241795      -305.9048
  17   1.0000     -10.512532      -286.0605
  18   1.0000     -10.508437      -285.9491
  19   1.0000     -10.507346      -285.9194
  20   1.0000      -7.978423      -217.1039
  21   1.0000      -7.977799      -217.0869
  22   1.0000      -7.977747      -217.0855
  23   1.0000      -7.974339      -216.9928
  24   1.0000      -7.973653      -216.9741
  25   1.0000      -7.973565      -216.9717
  26   1.0000      -7.973326      -216.9652
  27   1.0000      -7.972518      -216.9432
  28   1.0000      -7.972432      -216.9409
  29   1.0000      -4.146407      -112.8295
  30   1.0000      -2.668050       -72.6013
  31   1.0000      -2.668027       -72.6007
  32   1.0000      -2.667342       -72.5821
  33   1.0000      -1.426686       -38.8221
  34   1.0000      -1.148252       -31.2455
  35   1.0000      -1.089411       -29.6444
  36   1.0000      -1.044407       -28.4198
  37   1.0000      -1.032415       -28.0934
  38   1.0000      -1.030565       -28.0431
  39   1.0000      -1.028781       -27.9945
  40   1.0000      -1.000104       -27.2142
  41   1.0000      -0.974484       -26.5171
  42   1.0000      -0.911675       -24.8079
  43   1.0000      -0.814416       -22.1614
  44   1.0000      -0.746761       -20.3204
  45   1.0000      -0.700047       -19.0492
  46   1.0000      -0.689071       -18.7506
  47   1.0000      -0.682519       -18.5723
  48   1.0000      -0.667159       -18.1543
  49   1.0000      -0.635596       -17.2954
  50   1.0000      -0.622022       -16.9261
  51   1.0000      -0.604158       -16.4400
  52   1.0000      -0.595998       -16.2179
  53   1.0000      -0.582446       -15.8492
  54   1.0000      -0.573125       -15.5955
  55   1.0000      -0.564543       -15.3620
  56   1.0000      -0.557781       -15.1780
  57   1.0000      -0.552918       -15.0457
  58   1.0000      -0.544893       -14.8273
  59   1.0000      -0.537494       -14.6260
  60   1.0000      -0.516179       -14.0459
  61   1.0000      -0.509107       -13.8535
  62   1.0000      -0.491213       -13.3666
  63   1.0000      -0.477632       -12.9970
  64   1.0000      -0.475492       -12.9388
  65   1.0000      -0.447444       -12.1756
  66   1.0000      -0.444393       -12.0926
  67   1.0000      -0.441822       -12.0226
  68   1.0000      -0.426486       -11.6053
  69   1.0000      -0.422441       -11.4952
  70   1.0000      -0.407801       -11.0968
  71   1.0000      -0.370073       -10.0702
  72   0.0000       0.011625         0.3163
  73   0.0000       0.021844         0.5944
  74   0.0000       0.023089         0.6283
  75   0.0000       0.029766         0.8100
  76   0.0000       0.037675         1.0252

E(0)                                       ...  -3028.441093965
E(0)                                       ...  -3028.441093965
E(CORR)(strong-pairs)                      ...     -2.872773151
E(CORR)(weak-pairs)                        ...     -0.036467844
E(CORR)(corrected)                         ...     -2.909240995
E(TOT)                                     ...  -3031.350334960
E(CCSD(T))                                 ...  -3031.469848994
FINAL SINGLE POINT ENERGY     -3031.469848993645

DIPOLE MOMENT
-------------
                                X             Y             Z
Electronic contribution:     42.04887       4.51646       1.52041
Nuclear contribution   :    -46.00756      -5.39913      -2.09097
                        -----------------------------------------
Total Dipole Moment    :     -3.95869      -0.88266      -0.57056
                        -----------------------------------------
Magnitude (a.u.)       :      4.09584
Magnitude (Debye)      :     10.41079

Rotational constants in cm-1:     0.019099     0.011128     0.010461
Rotational constants in MHz :   572.585255   333.608670   313.601902

                             ****ORCA TERMINATED NORMALLY****
TOTAL RUN TIME: 0 days 18 hours 45 minutes 7 seconds 484 msec
