                         Program Version 4.1.2  - RELEASE  -
|  1> ! aug-cc-pVTZ aug-cc-pVTZ/C DLPNO-CCSD(T1) TightSCF NormalPNO UNO MiniPrint AutoAux
|  2> %pal nproc 10 end
|  3> %maxcore 20000
|  4> %mdci
|  5>      density none
|  6> end
|  7>
|  8> * xyz 0 6
|  9>  O     -0.42438900     -0.16648000     -0.50079700
| 10>  C     -1.41109800     -1.21727300     -0.35675000
| 11>  C     -2.81865400     -0.10642800     -0.19924300
| 12>  C     -1.94047100      1.11993100     -0.28484800
| 13>  C     -1.84923900      1.84570700     -1.57904200
| 14> Fe      1.37376100      0.04535900      0.04208000
| 15> Cl      1.85469700      2.00846400     -0.84907300
| 16>  C     -1.55908000      1.86606900      0.94288100
| 17> Cl      2.43542000     -1.70778800     -0.73544800
| 18> Cl      1.36868200      0.14977100      2.25041100
| 19>  H     -3.40906100     -0.21366000     -1.11208100
| 20>  H     -2.42195600      2.49344700      1.21693300
| 21>  H     -1.33907300      1.20949700      1.78485500
| 22>  H     -0.70457500      2.52086000      0.75931700
| 23>  H     -2.65502400      2.59738900     -1.58524500
| 24>  H     -0.89308800      2.36707600     -1.67052900
| 25>  H     -1.99829400      1.18041700     -2.43111200
| 26>  C     -3.67439300     -0.28924600      1.04037300
| 27>  H     -4.45036800      0.48332700      1.10603500
| 28>  H     -4.18081600     -1.25833000      0.99813100
| 29>  H     -3.09033900     -0.25910800      1.96321700
| 30>  C     -1.18311000     -2.05133300      0.88087100
| 31>  H     -1.99799000     -2.76851300      1.02166000
| 32>  H     -0.25040300     -2.61612100      0.76066500
| 33>  H     -1.08215300     -1.43625200      1.77692500
| 34>  C     -1.49041000     -2.02151700     -1.63347000
| 35>  H     -0.53242800     -2.53113400     -1.79141100
| 36>  H     -2.28350800     -2.77458800     -1.57390600
| 37>  H     -1.67445000     -1.37485600     -2.49595000
| 38> *
| 39>
| 40>
| 41>                          ****END OF INPUT****

CARTESIAN COORDINATES (ANGSTROEM)
---------------------------------
  O     -0.424389   -0.166480   -0.500797
  C     -1.411098   -1.217273   -0.356750
  C     -2.818654   -0.106428   -0.199243
  C     -1.940471    1.119931   -0.284848
  C     -1.849239    1.845707   -1.579042
  Fe     1.373761    0.045359    0.042080
  Cl     1.854697    2.008464   -0.849073
  C     -1.559080    1.866069    0.942881
  Cl     2.435420   -1.707788   -0.735448
  Cl     1.368682    0.149771    2.250411
  H     -3.409061   -0.213660   -1.112081
  H     -2.421956    2.493447    1.216933
  H     -1.339073    1.209497    1.784855
  H     -0.704575    2.520860    0.759317
  H     -2.655024    2.597389   -1.585245
  H     -0.893088    2.367076   -1.670529
  H     -1.998294    1.180417   -2.431112
  C     -3.674393   -0.289246    1.040373
  H     -4.450368    0.483327    1.106035
  H     -4.180816   -1.258330    0.998131
  H     -3.090339   -0.259108    1.963217
  C     -1.183110   -2.051333    0.880871
  H     -1.997990   -2.768513    1.021660
  H     -0.250403   -2.616121    0.760665
  H     -1.082153   -1.436252    1.776925
  C     -1.490410   -2.021517   -1.633470
  H     -0.532428   -2.531134   -1.791411
  H     -2.283508   -2.774588   -1.573906
  H     -1.674450   -1.374856   -2.495950

ORBITAL ENERGIES
----------------
                 SPIN UP ORBITALS
  NO   OCC          E(Eh)            E(eV)
   0   1.0000    -261.552363     -7117.2016
   1   1.0000    -104.779363     -2851.1914
   2   1.0000    -104.777212     -2851.1329
   3   1.0000    -104.776119     -2851.1031
   4   1.0000     -32.220282      -876.7584
   5   1.0000     -27.696256      -753.6534
   6   1.0000     -27.695947      -753.6450
   7   1.0000     -27.695677      -753.6377
   8   1.0000     -20.567755      -559.6771
   9   1.0000     -11.398939      -310.1809
  10   1.0000     -11.347672      -308.7859
  11   1.0000     -11.291542      -307.2585
  12   1.0000     -11.274745      -306.8014
  13   1.0000     -11.272794      -306.7483
  14   1.0000     -11.260711      -306.4195
  15   1.0000     -11.239583      -305.8446
  16   1.0000     -11.237528      -305.7887
  17   1.0000     -10.505967      -285.8819
  18   1.0000     -10.503880      -285.8251
  19   1.0000     -10.502748      -285.7943
  20   1.0000      -7.972788      -216.9506
  21   1.0000      -7.972054      -216.9306
  22   1.0000      -7.971986      -216.9288
  23   1.0000      -7.970761      -216.8954
  24   1.0000      -7.969930      -216.8728
  25   1.0000      -7.969894      -216.8718
  26   1.0000      -7.969548      -216.8624
  27   1.0000      -7.968862      -216.8438
  28   1.0000      -7.968796      -216.8420
  29   1.0000      -4.575636      -124.5094
  30   1.0000      -3.188091       -86.7524
  31   1.0000      -3.187759       -86.7433
  32   1.0000      -3.187179       -86.7276
  33   1.0000      -1.362589       -37.0779
  34   1.0000      -1.162769       -31.6405
  35   1.0000      -1.084807       -29.5191
  36   1.0000      -1.050976       -28.5985
  37   1.0000      -1.045148       -28.4399
  38   1.0000      -1.043674       -28.3998
  39   1.0000      -1.037754       -28.2387
  40   1.0000      -1.007882       -27.4259
  41   1.0000      -0.967551       -26.3284
  42   1.0000      -0.928204       -25.2577
  43   1.0000      -0.905509       -24.6402
  44   1.0000      -0.905045       -24.6275
  45   1.0000      -0.903185       -24.5769
  46   1.0000      -0.896454       -24.3938
  47   1.0000      -0.895845       -24.3772
  48   1.0000      -0.792631       -21.5686
  49   1.0000      -0.757743       -20.6192
  50   1.0000      -0.693863       -18.8810
  51   1.0000      -0.685449       -18.6520
  52   1.0000      -0.668142       -18.1811
  53   1.0000      -0.638570       -17.3764
  54   1.0000      -0.626457       -17.0468
  55   1.0000      -0.623589       -16.9687
  56   1.0000      -0.597653       -16.2630
  57   1.0000      -0.595225       -16.1969
  58   1.0000      -0.589546       -16.0424
  59   1.0000      -0.580629       -15.7997
  60   1.0000      -0.571435       -15.5496
  61   1.0000      -0.559225       -15.2173
  62   1.0000      -0.545355       -14.8399
  63   1.0000      -0.537643       -14.6300
  64   1.0000      -0.531775       -14.4703
  65   1.0000      -0.521665       -14.1952
  66   1.0000      -0.507085       -13.7985
  67   1.0000      -0.481541       -13.1034
  68   1.0000      -0.465915       -12.6782
  69   1.0000      -0.454981       -12.3807
  70   1.0000      -0.436629       -11.8813
  71   1.0000      -0.429020       -11.6742
  72   1.0000      -0.425497       -11.5783
  73   1.0000      -0.419239       -11.4081
  74   1.0000      -0.416407       -11.3310
  75   1.0000      -0.415318       -11.3014
  76   1.0000      -0.406150       -11.0519
  77   0.0000       0.008685         0.2363
  78   0.0000       0.020672         0.5625
  79   0.0000       0.022864         0.6222
  80   0.0000       0.031022         0.8441
  81   0.0000       0.037747         1.0272

                 SPIN DOWN ORBITALS
  NO   OCC          E(Eh)            E(eV)
   0   1.0000    -261.548811     -7117.1050
   1   1.0000    -104.778006     -2851.1545
   2   1.0000    -104.775807     -2851.0947
   3   1.0000    -104.774655     -2851.0633
   4   1.0000     -32.058321      -872.3513
   5   1.0000     -27.536339      -749.3019
   6   1.0000     -27.536187      -749.2977
   7   1.0000     -27.535797      -749.2871
   8   1.0000     -20.562506      -559.5342
   9   1.0000     -11.398983      -310.1821
  10   1.0000     -11.347545      -308.7824
  11   1.0000     -11.291374      -307.2539
  12   1.0000     -11.274725      -306.8009
  13   1.0000     -11.272803      -306.7486
  14   1.0000     -11.260709      -306.4195
  15   1.0000     -11.239544      -305.8436
  16   1.0000     -11.237516      -305.7884
  17   1.0000     -10.504512      -285.8423
  18   1.0000     -10.502371      -285.7840
  19   1.0000     -10.501183      -285.7517
  20   1.0000      -7.970472      -216.8876
  21   1.0000      -7.969817      -216.8697
  22   1.0000      -7.969750      -216.8679
  23   1.0000      -7.968267      -216.8276
  24   1.0000      -7.967679      -216.8116
  25   1.0000      -7.967614      -216.8098
  26   1.0000      -7.967161      -216.7975
  27   1.0000      -7.966377      -216.7761
  28   1.0000      -7.966325      -216.7747
  29   1.0000      -4.133582      -112.4805
  30   1.0000      -2.655489       -72.2595
  31   1.0000      -2.655335       -72.2553
  32   1.0000      -2.654427       -72.2306
  33   1.0000      -1.348795       -36.7026
  34   1.0000      -1.161302       -31.6006
  35   1.0000      -1.082253       -29.4496
  36   1.0000      -1.036870       -28.2147
  37   1.0000      -1.036009       -28.1912
  38   1.0000      -1.025108       -27.8946
  39   1.0000      -1.022982       -27.8367
  40   1.0000      -1.007586       -27.4178
  41   1.0000      -0.966972       -26.3126
  42   1.0000      -0.920433       -25.0463
  43   1.0000      -0.795470       -21.6458
  44   1.0000      -0.761713       -20.7273
  45   1.0000      -0.693939       -18.8830
  46   1.0000      -0.685104       -18.6426
  47   1.0000      -0.668747       -18.1975
  48   1.0000      -0.639488       -17.4013
  49   1.0000      -0.626672       -17.0526
  50   1.0000      -0.621799       -16.9200
  51   1.0000      -0.597573       -16.2608
  52   1.0000      -0.594379       -16.1739
  53   1.0000      -0.589541       -16.0422
  54   1.0000      -0.578723       -15.7479
  55   1.0000      -0.571193       -15.5429
  56   1.0000      -0.559055       -15.2127
  57   1.0000      -0.542463       -14.7612
  58   1.0000      -0.537017       -14.6130
  59   1.0000      -0.530135       -14.4257
  60   1.0000      -0.516342       -14.0504
  61   1.0000      -0.505370       -13.7518
  62   1.0000      -0.477600       -12.9962
  63   1.0000      -0.469739       -12.7823
  64   1.0000      -0.465276       -12.6608
  65   1.0000      -0.440416       -11.9843
  66   1.0000      -0.437280       -11.8990
  67   1.0000      -0.435585       -11.8529
  68   1.0000      -0.429542       -11.6884
  69   1.0000      -0.415316       -11.3013
  70   1.0000      -0.403813       -10.9883
  71   1.0000      -0.402414       -10.9502
  72   0.0000       0.008663         0.2357
  73   0.0000       0.020584         0.5601
  74   0.0000       0.022843         0.6216
  75   0.0000       0.031067         0.8454
  76   0.0000       0.037750         1.0272

E(0)                                       ...  -3028.431145944
E(0)                                       ...  -3028.431145944
E(CORR)(strong-pairs)                      ...     -2.874813342
E(CORR)(weak-pairs)                        ...     -0.035690549
E(CORR)(corrected)                         ...     -2.910503891
E(TOT)                                     ...  -3031.341649836
E(CCSD(T))                                 ...  -3031.460918704
FINAL SINGLE POINT ENERGY     -3031.460918704354

DIPOLE MOMENT
-------------
                                X             Y             Z
Electronic contribution:     40.18438       3.49825       1.89230
Nuclear contribution   :    -44.63266      -3.08441      -2.30674
                        -----------------------------------------
Total Dipole Moment    :     -4.44828       0.41384      -0.41443
                        -----------------------------------------
Magnitude (a.u.)       :      4.48667
Magnitude (Debye)      :     11.40420

Rotational constants in cm-1:     0.018856     0.012041     0.010808
Rotational constants in MHz :   565.302727   360.988847   324.018490

                             ****ORCA TERMINATED NORMALLY****
TOTAL RUN TIME: 0 days 21 hours 38 minutes 16 seconds 220 msec
