                         Program Version 4.1.2  - RELEASE  -
|  1> ! aug-cc-pVTZ aug-cc-pVTZ/C DLPNO-CCSD(T1) TightSCF NormalPNO UNO MiniPrint AutoAux
|  2> %pal nproc 10 end
|  3> %maxcore 20000
|  4> %mdci
|  5>      density none
|  6> end
|  7>
|  8> * xyz 0 6
|  9>  O      0.24134600      0.31027500     -0.84073000
| 10>  C      1.05062600      1.25901200     -0.66238700
| 11>  C      3.02025100      0.12942000      0.49826000
| 12>  C      2.58265700     -0.96401000     -0.16477600
| 13>  C      3.02410400     -1.26628000     -1.56896000
| 14> Fe     -1.46367400     -0.14433000      0.01381300
| 15> Cl     -2.07341600     -2.00216100     -0.94337600
| 16>  C      1.66418300     -1.99028300      0.42567600
| 17> Cl     -2.66303200      1.62077100     -0.47676800
| 18> Cl     -1.11782200     -0.32563700      2.17736800
| 19>  H      3.74686700      0.76227300     -0.01062200
| 20>  H      2.19729200     -2.94586400      0.52211800
| 21>  H      1.27163000     -1.72000600      1.40512700
| 22>  H      0.81832900     -2.17936100     -0.24683100
| 23>  H      3.50367900     -2.25304400     -1.60148200
| 24>  H      2.15933900     -1.32219300     -2.24347200
| 25>  H      3.73733700     -0.53295600     -1.95475200
| 26>  C      2.85290500      0.39465900      1.97227500
| 27>  H      3.65326600     -0.10594700      2.53374100
| 28>  H      2.93012300      1.46169600      2.20027400
| 29>  H      1.90064800      0.03265100      2.36766900
| 30>  C      0.86680200      2.21300900      0.47826700
| 31>  H      1.75195900      2.82593900      0.65117800
| 32>  H      0.03826700      2.87313900      0.18042500
| 33>  H      0.56208500      1.70504000      1.39296500
| 34>  C      1.83679400      1.73351000     -1.85020300
| 35>  H      1.20272100      2.48581400     -2.34207700
| 36>  H      2.77159800      2.21878400     -1.56683500
| 37>  H      2.01229300      0.92966300     -2.56245800
| 38> *
| 39>
| 40>
| 41>                          ****END OF INPUT****

CARTESIAN COORDINATES (ANGSTROEM)
---------------------------------
  O      0.241346    0.310275   -0.840730
  C      1.050626    1.259012   -0.662387
  C      3.020251    0.129420    0.498260
  C      2.582657   -0.964010   -0.164776
  C      3.024104   -1.266280   -1.568960
  Fe    -1.463674   -0.144330    0.013813
  Cl    -2.073416   -2.002161   -0.943376
  C      1.664183   -1.990283    0.425676
  Cl    -2.663032    1.620771   -0.476768
  Cl    -1.117822   -0.325637    2.177368
  H      3.746867    0.762273   -0.010622
  H      2.197292   -2.945864    0.522118
  H      1.271630   -1.720006    1.405127
  H      0.818329   -2.179361   -0.246831
  H      3.503679   -2.253044   -1.601482
  H      2.159339   -1.322193   -2.243472
  H      3.737337   -0.532956   -1.954752
  C      2.852905    0.394659    1.972275
  H      3.653266   -0.105947    2.533741
  H      2.930123    1.461696    2.200274
  H      1.900648    0.032651    2.367669
  C      0.866802    2.213009    0.478267
  H      1.751959    2.825939    0.651178
  H      0.038267    2.873139    0.180425
  H      0.562085    1.705040    1.392965
  C      1.836794    1.733510   -1.850203
  H      1.202721    2.485814   -2.342077
  H      2.771598    2.218784   -1.566835
  H      2.012293    0.929663   -2.562458

ORBITAL ENERGIES
----------------
                 SPIN UP ORBITALS
  NO   OCC          E(Eh)            E(eV)
   0   1.0000    -261.574229     -7117.7966
   1   1.0000    -104.792769     -2851.5562
   2   1.0000    -104.789527     -2851.4680
   3   1.0000    -104.787738     -2851.4193
   4   1.0000     -32.241953      -877.3481
   5   1.0000     -27.718388      -754.2557
   6   1.0000     -27.717319      -754.2266
   7   1.0000     -27.717135      -754.2216
   8   1.0000     -20.614371      -560.9456
   9   1.0000     -11.421059      -310.7828
  10   1.0000     -11.276494      -306.8490
  11   1.0000     -11.273273      -306.7614
  12   1.0000     -11.270648      -306.6899
  13   1.0000     -11.246307      -306.0276
  14   1.0000     -11.245349      -306.0015
  15   1.0000     -11.238629      -305.8187
  16   1.0000     -11.231312      -305.6196
  17   1.0000     -10.519477      -286.2495
  18   1.0000     -10.516211      -286.1607
  19   1.0000     -10.514374      -286.1107
  20   1.0000      -7.986315      -217.3187
  21   1.0000      -7.985550      -217.2979
  22   1.0000      -7.985502      -217.2965
  23   1.0000      -7.983091      -217.2310
  24   1.0000      -7.982306      -217.2096
  25   1.0000      -7.982249      -217.2080
  26   1.0000      -7.981164      -217.1785
  27   1.0000      -7.980499      -217.1604
  28   1.0000      -7.980451      -217.1591
  29   1.0000      -4.596853      -125.0867
  30   1.0000      -3.209951       -87.3472
  31   1.0000      -3.208296       -87.3022
  32   1.0000      -3.208140       -87.2979
  33   1.0000      -1.459521       -39.7156
  34   1.0000      -1.130611       -30.7655
  35   1.0000      -1.099669       -29.9235
  36   1.0000      -1.065694       -28.9990
  37   1.0000      -1.059937       -28.8424
  38   1.0000      -1.057138       -28.7662
  39   1.0000      -1.023164       -27.8417
  40   1.0000      -1.008678       -27.4475
  41   1.0000      -0.961285       -26.1579
  42   1.0000      -0.941309       -25.6143
  43   1.0000      -0.925793       -25.1921
  44   1.0000      -0.925698       -25.1895
  45   1.0000      -0.915159       -24.9027
  46   1.0000      -0.914498       -24.8848
  47   1.0000      -0.899280       -24.4707
  48   1.0000      -0.811605       -22.0849
  49   1.0000      -0.732609       -19.9353
  50   1.0000      -0.709703       -19.3120
  51   1.0000      -0.700017       -19.0484
  52   1.0000      -0.685362       -18.6496
  53   1.0000      -0.657885       -17.9020
  54   1.0000      -0.623931       -16.9780
  55   1.0000      -0.621581       -16.9141
  56   1.0000      -0.604554       -16.4507
  57   1.0000      -0.599204       -16.3052
  58   1.0000      -0.585485       -15.9318
  59   1.0000      -0.577735       -15.7210
  60   1.0000      -0.560905       -15.2630
  61   1.0000      -0.552931       -15.0460
  62   1.0000      -0.548279       -14.9194
  63   1.0000      -0.542640       -14.7660
  64   1.0000      -0.535409       -14.5692
  65   1.0000      -0.527823       -14.3628
  66   1.0000      -0.501558       -13.6481
  67   1.0000      -0.495830       -13.4922
  68   1.0000      -0.475992       -12.9524
  69   1.0000      -0.474863       -12.9217
  70   1.0000      -0.445524       -12.1233
  71   1.0000      -0.439672       -11.9641
  72   1.0000      -0.437872       -11.9151
  73   1.0000      -0.429191       -11.6789
  74   1.0000      -0.428209       -11.6522
  75   1.0000      -0.426987       -11.6189
  76   1.0000      -0.361390        -9.8339
  77   0.0000       0.012586         0.3425
  78   0.0000       0.023407         0.6369
  79   0.0000       0.024049         0.6544
  80   0.0000       0.030541         0.8311
  81   0.0000       0.039217         1.0671

                 SPIN DOWN ORBITALS
  NO   OCC          E(Eh)            E(eV)
   0   1.0000    -261.570654     -7117.6994
   1   1.0000    -104.791295     -2851.5161
   2   1.0000    -104.787980     -2851.4259
   3   1.0000    -104.786190     -2851.3772
   4   1.0000     -32.079952      -872.9399
   5   1.0000     -27.557863      -749.8876
   6   1.0000     -27.557806      -749.8860
   7   1.0000     -27.557680      -749.8826
   8   1.0000     -20.610770      -560.8476
   9   1.0000     -11.420974      -310.7805
  10   1.0000     -11.276384      -306.8460
  11   1.0000     -11.273287      -306.7617
  12   1.0000     -11.270639      -306.6897
  13   1.0000     -11.246248      -306.0260
  14   1.0000     -11.245346      -306.0014
  15   1.0000     -11.238635      -305.8188
  16   1.0000     -11.231327      -305.6200
  17   1.0000     -10.517902      -286.2067
  18   1.0000     -10.514560      -286.1157
  19   1.0000     -10.512728      -286.0659
  20   1.0000      -7.983816      -217.2507
  21   1.0000      -7.983101      -217.2312
  22   1.0000      -7.983058      -217.2301
  23   1.0000      -7.980440      -217.1588
  24   1.0000      -7.979762      -217.1404
  25   1.0000      -7.979670      -217.1379
  26   1.0000      -7.978717      -217.1119
  27   1.0000      -7.977836      -217.0880
  28   1.0000      -7.977754      -217.0857
  29   1.0000      -4.154730      -113.0559
  30   1.0000      -2.676288       -72.8255
  31   1.0000      -2.676267       -72.8249
  32   1.0000      -2.675767       -72.8113
  33   1.0000      -1.450629       -39.4736
  34   1.0000      -1.130272       -30.7563
  35   1.0000      -1.097280       -29.8585
  36   1.0000      -1.050212       -28.5777
  37   1.0000      -1.037712       -28.2376
  38   1.0000      -1.034591       -28.1526
  39   1.0000      -1.022556       -27.8252
  40   1.0000      -1.008061       -27.4307
  41   1.0000      -0.961168       -26.1547
  42   1.0000      -0.899474       -24.4759
  43   1.0000      -0.824497       -22.4357
  44   1.0000      -0.732681       -19.9373
  45   1.0000      -0.711911       -19.3721
  46   1.0000      -0.699134       -19.0244
  47   1.0000      -0.684664       -18.6306
  48   1.0000      -0.657806       -17.8998
  49   1.0000      -0.623879       -16.9766
  50   1.0000      -0.621035       -16.8992
  51   1.0000      -0.604252       -16.4425
  52   1.0000      -0.599118       -16.3028
  53   1.0000      -0.585226       -15.9248
  54   1.0000      -0.576528       -15.6881
  55   1.0000      -0.560083       -15.2406
  56   1.0000      -0.552802       -15.0425
  57   1.0000      -0.546369       -14.8675
  58   1.0000      -0.542566       -14.7640
  59   1.0000      -0.529189       -14.4000
  60   1.0000      -0.522280       -14.2120
  61   1.0000      -0.502984       -13.6869
  62   1.0000      -0.495697       -13.4886
  63   1.0000      -0.484092       -13.1728
  64   1.0000      -0.481701       -13.1077
  65   1.0000      -0.452901       -12.3241
  66   1.0000      -0.449867       -12.2415
  67   1.0000      -0.446997       -12.1634
  68   1.0000      -0.430752       -11.7214
  69   1.0000      -0.428208       -11.6521
  70   1.0000      -0.412535       -11.2256
  71   1.0000      -0.360651        -9.8138
  72   0.0000       0.012571         0.3421
  73   0.0000       0.023383         0.6363
  74   0.0000       0.024016         0.6535
  75   0.0000       0.030466         0.8290
  76   0.0000       0.039093         1.0638

E(0)                                       ...  -3028.459006237
E(0)                                       ...  -3028.459006237
E(CORR)(strong-pairs)                      ...     -2.869143983
E(CORR)(weak-pairs)                        ...     -0.035797274
E(CORR)(corrected)                         ...     -2.904941258
E(TOT)                                     ...  -3031.363947495
E(CCSD(T))                                 ...  -3031.482311753
FINAL SINGLE POINT ENERGY     -3031.482311753348

DIPOLE MOMENT
-------------
                                X             Y             Z
Electronic contribution:    -43.04267      -4.30114       1.70282
Nuclear contribution   :     46.47750       5.59256      -2.33604
                        -----------------------------------------
Total Dipole Moment    :      3.43484       1.29142      -0.63322
                        -----------------------------------------
Magnitude (a.u.)       :      3.72382
Magnitude (Debye)      :      9.46520

Rotational constants in cm-1:     0.018917     0.010898     0.010263
Rotational constants in MHz :   567.117632   326.715309   307.677784

                             ****ORCA TERMINATED NORMALLY****
TOTAL RUN TIME: 0 days 17 hours 52 minutes 34 seconds 847 msec
