                         Program Version 4.1.2  - RELEASE  -
|  1> ! aug-cc-pVTZ aug-cc-pVTZ/C DLPNO-CCSD(T1) TightSCF NormalPNO UNO MiniPrint AutoAux
|  2> %pal nproc 10 end
|  3> %maxcore 20000
|  4> %mdci
|  5>      density none
|  6> end
|  7>
|  8> * xyz 0 6
|  9>  O     -0.29903000     -0.36909000     -0.71008500
| 10>  C     -1.43526500     -1.20958200     -0.48726100
| 11>  C     -2.60474400     -0.23397000      0.00315000
| 12>  C     -2.03535500      1.13976700     -0.22947300
| 13>  C     -2.02657500      1.74097700     -1.57229900
| 14> Fe      1.34601900      0.03231400      0.00344600
| 15> Cl      1.63037600      2.10659200     -0.77037200
| 16>  C     -1.58115700      1.96745000      0.89163400
| 17> Cl      2.83504100     -1.46012100     -0.59196800
| 18> Cl      1.05715000      0.10581600      2.23265300
| 19>  H     -3.44410500     -0.35203900     -0.69446400
| 20>  H     -2.45734100      2.18851700      1.52163500
| 21>  H     -0.89882400      1.39629700      1.54100500
| 22>  H     -1.09986200      2.89136500      0.57172500
| 23>  H     -2.66308700      2.64026800     -1.54180900
| 24>  H     -1.00633600      2.09809400     -1.77661700
| 25>  H     -2.36774200      1.07207000     -2.36040200
| 26>  C     -3.11584000     -0.46619700      1.42825200
| 27>  H     -3.91540700      0.24039400      1.67700900
| 28>  H     -3.53341100     -1.47243900      1.50936600
| 29>  H     -2.32450300     -0.37125400      2.17521600
| 30>  C     -1.08846500     -2.29924300      0.52478700
| 31>  H     -1.92009600     -2.99413700      0.67955000
| 32>  H     -0.24144600     -2.86474800      0.12179200
| 33>  H     -0.78060600     -1.88217200      1.48482300
| 34>  C     -1.80756200     -1.84605600     -1.82832200
| 35>  H     -0.96490000     -2.44811800     -2.18023400
| 36>  H     -2.68724100     -2.49227600     -1.72895800
| 37>  H     -2.01320600     -1.08500900     -2.58667800
| 38> *
| 39>
| 40>
| 41>                          ****END OF INPUT****

CARTESIAN COORDINATES (ANGSTROEM)
---------------------------------
  O     -0.299030   -0.369090   -0.710085
  C     -1.435265   -1.209582   -0.487261
  C     -2.604744   -0.233970    0.003150
  C     -2.035355    1.139767   -0.229473
  C     -2.026575    1.740977   -1.572299
  Fe     1.346019    0.032314    0.003446
  Cl     1.630376    2.106592   -0.770372
  C     -1.581157    1.967450    0.891634
  Cl     2.835041   -1.460121   -0.591968
  Cl     1.057150    0.105816    2.232653
  H     -3.444105   -0.352039   -0.694464
  H     -2.457341    2.188517    1.521635
  H     -0.898824    1.396297    1.541005
  H     -1.099862    2.891365    0.571725
  H     -2.663087    2.640268   -1.541809
  H     -1.006336    2.098094   -1.776617
  H     -2.367742    1.072070   -2.360402
  C     -3.115840   -0.466197    1.428252
  H     -3.915407    0.240394    1.677009
  H     -3.533411   -1.472439    1.509366
  H     -2.324503   -0.371254    2.175216
  C     -1.088465   -2.299243    0.524787
  H     -1.920096   -2.994137    0.679550
  H     -0.241446   -2.864748    0.121792
  H     -0.780606   -1.882172    1.484823
  C     -1.807562   -1.846056   -1.828322
  H     -0.964900   -2.448118   -2.180234
  H     -2.687241   -2.492276   -1.728958
  H     -2.013206   -1.085009   -2.586678

ORBITAL ENERGIES
----------------
                 SPIN UP ORBITALS
  NO   OCC          E(Eh)            E(eV)
   0   1.0000    -261.542626     -7116.9367
   1   1.0000    -104.775092     -2851.0752
   2   1.0000    -104.773338     -2851.0275
   3   1.0000    -104.767587     -2850.8710
   4   1.0000     -32.210462      -876.4912
   5   1.0000     -27.686512      -753.3883
   6   1.0000     -27.686211      -753.3801
   7   1.0000     -27.685778      -753.3683
   8   1.0000     -20.535996      -558.8129
   9   1.0000     -11.417354      -310.6820
  10   1.0000     -11.330366      -308.3149
  11   1.0000     -11.296868      -307.4034
  12   1.0000     -11.289271      -307.1967
  13   1.0000     -11.281791      -306.9931
  14   1.0000     -11.262662      -306.4726
  15   1.0000     -11.236512      -305.7610
  16   1.0000     -11.228568      -305.5449
  17   1.0000     -10.501699      -285.7658
  18   1.0000     -10.499855      -285.7156
  19   1.0000     -10.494154      -285.5605
  20   1.0000      -7.968597      -216.8366
  21   1.0000      -7.967680      -216.8116
  22   1.0000      -7.967650      -216.8108
  23   1.0000      -7.966717      -216.7854
  24   1.0000      -7.965925      -216.7638
  25   1.0000      -7.965816      -216.7609
  26   1.0000      -7.960921      -216.6277
  27   1.0000      -7.960288      -216.6104
  28   1.0000      -7.960193      -216.6079
  29   1.0000      -4.565955      -124.2460
  30   1.0000      -3.178517       -86.4919
  31   1.0000      -3.177998       -86.4777
  32   1.0000      -3.177742       -86.4708
  33   1.0000      -1.343693       -36.5638
  34   1.0000      -1.190973       -32.4080
  35   1.0000      -1.097693       -29.8697
  36   1.0000      -1.044841       -28.4316
  37   1.0000      -1.039885       -28.2967
  38   1.0000      -1.037774       -28.2393
  39   1.0000      -1.034992       -28.1636
  40   1.0000      -1.020269       -27.7629
  41   1.0000      -0.962540       -26.1920
  42   1.0000      -0.933124       -25.3916
  43   1.0000      -0.901610       -24.5340
  44   1.0000      -0.895654       -24.3720
  45   1.0000      -0.895434       -24.3660
  46   1.0000      -0.888510       -24.1776
  47   1.0000      -0.887477       -24.1495
  48   1.0000      -0.807576       -21.9753
  49   1.0000      -0.759025       -20.6541
  50   1.0000      -0.709372       -19.3030
  51   1.0000      -0.690931       -18.8012
  52   1.0000      -0.677787       -18.4435
  53   1.0000      -0.637174       -17.3384
  54   1.0000      -0.631979       -17.1970
  55   1.0000      -0.623768       -16.9736
  56   1.0000      -0.605193       -16.4681
  57   1.0000      -0.600188       -16.3319
  58   1.0000      -0.594524       -16.1778
  59   1.0000      -0.583318       -15.8729
  60   1.0000      -0.578421       -15.7396
  61   1.0000      -0.554909       -15.0998
  62   1.0000      -0.546384       -14.8679
  63   1.0000      -0.537504       -14.6262
  64   1.0000      -0.523142       -14.2354
  65   1.0000      -0.518883       -14.1195
  66   1.0000      -0.500646       -13.6233
  67   1.0000      -0.467755       -12.7283
  68   1.0000      -0.466610       -12.6971
  69   1.0000      -0.444581       -12.0977
  70   1.0000      -0.437414       -11.9026
  71   1.0000      -0.423795       -11.5320
  72   1.0000      -0.420108       -11.4317
  73   1.0000      -0.416558       -11.3351
  74   1.0000      -0.412524       -11.2254
  75   1.0000      -0.411193       -11.1891
  76   1.0000      -0.408522       -11.1164
  77   0.0000       0.003336         0.0908
  78   0.0000       0.010949         0.2979
  79   0.0000       0.019741         0.5372
  80   0.0000       0.020705         0.5634
  81   0.0000       0.030318         0.8250

                 SPIN DOWN ORBITALS
  NO   OCC          E(Eh)            E(eV)
   0   1.0000    -261.539086     -7116.8403
   1   1.0000    -104.773832     -2851.0409
   2   1.0000    -104.772092     -2850.9936
   3   1.0000    -104.766166     -2850.8323
   4   1.0000     -32.048447      -872.0826
   5   1.0000     -27.526646      -749.0381
   6   1.0000     -27.526399      -749.0314
   7   1.0000     -27.525733      -749.0133
   8   1.0000     -20.529207      -558.6281
   9   1.0000     -11.417378      -310.6826
  10   1.0000     -11.330094      -308.3075
  11   1.0000     -11.296771      -307.4008
  12   1.0000     -11.289254      -307.1962
  13   1.0000     -11.281819      -306.9939
  14   1.0000     -11.262665      -306.4727
  15   1.0000     -11.236430      -305.7588
  16   1.0000     -11.228543      -305.5442
  17   1.0000     -10.500334      -285.7286
  18   1.0000     -10.498511      -285.6790
  19   1.0000     -10.492635      -285.5191
  20   1.0000      -7.966133      -216.7695
  21   1.0000      -7.965805      -216.7606
  22   1.0000      -7.965718      -216.7582
  23   1.0000      -7.964431      -216.7232
  24   1.0000      -7.963960      -216.7104
  25   1.0000      -7.963857      -216.7076
  26   1.0000      -7.958666      -216.5663
  27   1.0000      -7.957836      -216.5437
  28   1.0000      -7.957770      -216.5419
  29   1.0000      -4.123892      -112.2168
  30   1.0000      -2.645932       -71.9995
  31   1.0000      -2.645722       -71.9937
  32   1.0000      -2.644932       -71.9723
  33   1.0000      -1.326057       -36.0838
  34   1.0000      -1.189281       -32.3620
  35   1.0000      -1.094855       -29.7925
  36   1.0000      -1.037322       -28.2270
  37   1.0000      -1.030701       -28.0468
  38   1.0000      -1.022630       -27.8272
  39   1.0000      -1.018110       -27.7042
  40   1.0000      -1.014850       -27.6155
  41   1.0000      -0.961765       -26.1710
  42   1.0000      -0.931168       -25.3384
  43   1.0000      -0.810612       -22.0579
  44   1.0000      -0.764736       -20.8095
  45   1.0000      -0.710312       -19.3286
  46   1.0000      -0.690958       -18.8019
  47   1.0000      -0.678148       -18.4533
  48   1.0000      -0.637439       -17.3456
  49   1.0000      -0.633949       -17.2506
  50   1.0000      -0.622115       -16.9286
  51   1.0000      -0.605468       -16.4756
  52   1.0000      -0.599761       -16.3203
  53   1.0000      -0.593150       -16.1404
  54   1.0000      -0.583020       -15.8648
  55   1.0000      -0.576736       -15.6938
  56   1.0000      -0.554693       -15.0940
  57   1.0000      -0.542641       -14.7660
  58   1.0000      -0.536605       -14.6018
  59   1.0000      -0.519785       -14.1441
  60   1.0000      -0.515536       -14.0284
  61   1.0000      -0.497961       -13.5502
  62   1.0000      -0.467423       -12.7192
  63   1.0000      -0.463918       -12.6239
  64   1.0000      -0.449915       -12.2428
  65   1.0000      -0.446396       -12.1470
  66   1.0000      -0.434815       -11.8319
  67   1.0000      -0.430040       -11.7020
  68   1.0000      -0.429438       -11.6856
  69   1.0000      -0.409214       -11.1353
  70   1.0000      -0.401344       -10.9211
  71   1.0000      -0.398260       -10.8372
  72   0.0000       0.003234         0.0880
  73   0.0000       0.010597         0.2883
  74   0.0000       0.019721         0.5366
  75   0.0000       0.020688         0.5629
  76   0.0000       0.030348         0.8258

E(0)                                       ...  -3028.432126278
E(0)                                       ...  -3028.432126278
E(CORR)(strong-pairs)                      ...     -2.869456286
E(CORR)(weak-pairs)                        ...     -0.035762801
E(CORR)(corrected)                         ...     -2.905219087
E(TOT)                                     ...  -3031.337345365
E(CCSD(T))                                 ...  -3031.454642153
FINAL SINGLE POINT ENERGY     -3031.454642152890

DIPOLE MOMENT
-------------
                                X             Y             Z
Electronic contribution:     38.76312       5.13989       2.36351
Nuclear contribution   :    -43.71881      -4.47166      -2.75237
                        -----------------------------------------
Total Dipole Moment    :     -4.95569       0.66823      -0.38886
                        -----------------------------------------
Magnitude (a.u.)       :      5.01564
Magnitude (Debye)      :     12.74873

Rotational constants in cm-1:     0.018800     0.012244     0.011033
Rotational constants in MHz :   563.596729   367.080532   330.757370

                             ****ORCA TERMINATED NORMALLY****
TOTAL RUN TIME: 0 days 21 hours 43 minutes 41 seconds 583 msec
