                         Program Version 4.1.2  - RELEASE  -
|  1> ! aug-cc-pVTZ aug-cc-pVTZ/C DLPNO-CCSD(T1) TightSCF NormalPNO UNO MiniPrint AutoAux
|  2> %pal nproc 10 end
|  3> %maxcore 20000
|  4> %mdci
|  5>      density none
|  6> end
|  7>
|  8> * xyz 0 6
|  9>  O     -0.33976300     -0.29861000     -0.61065000
| 10>  C     -1.44368200     -1.18540800     -0.36632900
| 11>  C     -2.72357200     -0.14645300     -0.29591500
| 12>  C     -2.00211400      1.17046300     -0.23525200
| 13>  C     -1.82496200      1.98589100     -1.44954200
| 14> Fe      1.38055500      0.01584800      0.01109100
| 15> Cl      1.75410700      2.05171300     -0.82067800
| 16>  C     -1.62245400      1.76842100      1.05865900
| 17> Cl      2.67308200     -1.60708300     -0.69909900
| 18> Cl      1.30877600      0.14167100      2.23051200
| 19>  H     -3.23375300     -0.20919000     -1.26136100
| 20>  H     -2.52206000      2.28569500      1.43491700
| 21>  H     -1.33845500      1.02413500      1.80413100
| 22>  H     -0.82405300      2.50516500      0.94687700
| 23>  H     -2.43223500      2.89910800     -1.33872800
| 24>  H     -0.77782500      2.31502300     -1.50957000
| 25>  H     -2.11386100      1.46290900     -2.36113300
| 26>  C     -3.73335400     -0.39315800      0.82570600
| 27>  H     -4.54358100      0.34405500      0.79538100
| 28>  H     -4.18394500     -1.38151900      0.69712800
| 29>  H     -3.27596900     -0.36045300      1.81700200
| 30>  C     -1.24131700     -1.97046000      0.92180000
| 31>  H     -2.07682900     -2.65168700      1.11013500
| 32>  H     -0.33065200     -2.57047300      0.81723200
| 33>  H     -1.10166100     -1.32176200      1.78843400
| 34>  C     -1.59034000     -2.11225400     -1.56468600
| 35>  H     -0.69093100     -2.73134400     -1.64774700
| 36>  H     -2.46157100     -2.76884000     -1.45728600
| 37>  H     -1.68955200     -1.53336200     -2.48771200
| 38> *
| 39>
| 40>
| 41>                          ****END OF INPUT****

CARTESIAN COORDINATES (ANGSTROEM)
---------------------------------
  O     -0.339763   -0.298610   -0.610650
  C     -1.443682   -1.185408   -0.366329
  C     -2.723572   -0.146453   -0.295915
  C     -2.002114    1.170463   -0.235252
  C     -1.824962    1.985891   -1.449542
  Fe     1.380555    0.015848    0.011091
  Cl     1.754107    2.051713   -0.820678
  C     -1.622454    1.768421    1.058659
  Cl     2.673082   -1.607083   -0.699099
  Cl     1.308776    0.141671    2.230512
  H     -3.233753   -0.209190   -1.261361
  H     -2.522060    2.285695    1.434917
  H     -1.338455    1.024135    1.804131
  H     -0.824053    2.505165    0.946877
  H     -2.432235    2.899108   -1.338728
  H     -0.777825    2.315023   -1.509570
  H     -2.113861    1.462909   -2.361133
  C     -3.733354   -0.393158    0.825706
  H     -4.543581    0.344055    0.795381
  H     -4.183945   -1.381519    0.697128
  H     -3.275969   -0.360453    1.817002
  C     -1.241317   -1.970460    0.921800
  H     -2.076829   -2.651687    1.110135
  H     -0.330652   -2.570473    0.817232
  H     -1.101661   -1.321762    1.788434
  C     -1.590340   -2.112254   -1.564686
  H     -0.690931   -2.731344   -1.647747
  H     -2.461571   -2.768840   -1.457286
  H     -1.689552   -1.533362   -2.487712

ORBITAL ENERGIES
----------------
                 SPIN UP ORBITALS
  NO   OCC          E(Eh)            E(eV)
   0   1.0000    -261.543097     -7116.9495
   1   1.0000    -104.773795     -2851.0399
   2   1.0000    -104.772050     -2850.9924
   3   1.0000    -104.767675     -2850.8734
   4   1.0000     -32.210966      -876.5049
   5   1.0000     -27.686918      -753.3994
   6   1.0000     -27.686684      -753.3930
   7   1.0000     -27.686388      -753.3849
   8   1.0000     -20.543087      -559.0058
   9   1.0000     -11.415132      -310.6215
  10   1.0000     -11.335162      -308.4454
  11   1.0000     -11.295672      -307.3709
  12   1.0000     -11.285714      -307.0999
  13   1.0000     -11.284183      -307.0582
  14   1.0000     -11.269352      -306.6546
  15   1.0000     -11.235115      -305.7230
  16   1.0000     -11.233597      -305.6817
  17   1.0000     -10.500355      -285.7292
  18   1.0000     -10.498741      -285.6853
  19   1.0000     -10.494258      -285.5633
  20   1.0000      -7.967201      -216.7986
  21   1.0000      -7.966416      -216.7772
  22   1.0000      -7.966330      -216.7749
  23   1.0000      -7.965633      -216.7559
  24   1.0000      -7.964765      -216.7323
  25   1.0000      -7.964743      -216.7317
  26   1.0000      -7.961057      -216.6314
  27   1.0000      -7.960389      -216.6132
  28   1.0000      -7.960288      -216.6104
  29   1.0000      -4.566416      -124.2585
  30   1.0000      -3.178889       -86.5020
  31   1.0000      -3.178579       -86.4935
  32   1.0000      -3.178099       -86.4805
  33   1.0000      -1.346007       -36.6267
  34   1.0000      -1.185143       -32.2494
  35   1.0000      -1.095231       -29.8028
  36   1.0000      -1.043970       -28.4079
  37   1.0000      -1.039168       -28.2772
  38   1.0000      -1.036430       -28.2027
  39   1.0000      -1.035114       -28.1669
  40   1.0000      -1.021659       -27.8008
  41   1.0000      -0.963669       -26.2228
  42   1.0000      -0.935890       -25.4669
  43   1.0000      -0.900822       -24.5126
  44   1.0000      -0.895855       -24.3774
  45   1.0000      -0.895729       -24.3740
  46   1.0000      -0.888258       -24.1707
  47   1.0000      -0.887653       -24.1543
  48   1.0000      -0.803503       -21.8644
  49   1.0000      -0.760170       -20.6853
  50   1.0000      -0.705696       -19.2030
  51   1.0000      -0.690106       -18.7787
  52   1.0000      -0.673455       -18.3256
  53   1.0000      -0.637204       -17.3392
  54   1.0000      -0.636555       -17.3215
  55   1.0000      -0.621734       -16.9182
  56   1.0000      -0.607056       -16.5188
  57   1.0000      -0.598545       -16.2872
  58   1.0000      -0.595318       -16.1994
  59   1.0000      -0.585585       -15.9346
  60   1.0000      -0.577464       -15.7136
  61   1.0000      -0.558791       -15.2055
  62   1.0000      -0.546327       -14.8663
  63   1.0000      -0.537532       -14.6270
  64   1.0000      -0.527152       -14.3445
  65   1.0000      -0.520498       -14.1635
  66   1.0000      -0.501958       -13.6590
  67   1.0000      -0.469432       -12.7739
  68   1.0000      -0.464644       -12.6436
  69   1.0000      -0.446480       -12.1493
  70   1.0000      -0.435525       -11.8513
  71   1.0000      -0.424564       -11.5530
  72   1.0000      -0.419674       -11.4199
  73   1.0000      -0.415164       -11.2972
  74   1.0000      -0.411172       -11.1886
  75   1.0000      -0.410608       -11.1732
  76   1.0000      -0.408004       -11.1023
  77   0.0000       0.004896         0.1332
  78   0.0000       0.014881         0.4049
  79   0.0000       0.020653         0.5620
  80   0.0000       0.022893         0.6229
  81   0.0000       0.030042         0.8175

                 SPIN DOWN ORBITALS
  NO   OCC          E(Eh)            E(eV)
   0   1.0000    -261.539554     -7116.8531
   1   1.0000    -104.772535     -2851.0056
   2   1.0000    -104.770703     -2850.9558
   3   1.0000    -104.766234     -2850.8342
   4   1.0000     -32.048947      -872.0962
   5   1.0000     -27.527117      -749.0509
   6   1.0000     -27.526841      -749.0434
   7   1.0000     -27.526298      -749.0286
   8   1.0000     -20.536786      -558.8344
   9   1.0000     -11.415175      -310.6227
  10   1.0000     -11.334925      -308.4390
  11   1.0000     -11.295556      -307.3677
  12   1.0000     -11.285721      -307.1001
  13   1.0000     -11.284161      -307.0576
  14   1.0000     -11.269348      -306.6546
  15   1.0000     -11.235057      -305.7214
  16   1.0000     -11.233572      -305.6810
  17   1.0000     -10.498996      -285.6922
  18   1.0000     -10.497289      -285.6458
  19   1.0000     -10.492716      -285.5213
  20   1.0000      -7.964909      -216.7362
  21   1.0000      -7.964423      -216.7230
  22   1.0000      -7.964333      -216.7205
  23   1.0000      -7.963164      -216.6887
  24   1.0000      -7.962656      -216.6749
  25   1.0000      -7.962604      -216.6735
  26   1.0000      -7.958704      -216.5674
  27   1.0000      -7.957932      -216.5463
  28   1.0000      -7.957868      -216.5446
  29   1.0000      -4.124311      -112.2282
  30   1.0000      -2.646314       -72.0099
  31   1.0000      -2.646174       -72.0061
  32   1.0000      -2.645181       -71.9790
  33   1.0000      -1.329623       -36.1809
  34   1.0000      -1.183559       -32.2063
  35   1.0000      -1.092690       -29.7336
  36   1.0000      -1.034436       -28.1484
  37   1.0000      -1.030212       -28.0335
  38   1.0000      -1.023854       -27.8605
  39   1.0000      -1.017719       -27.6936
  40   1.0000      -1.014780       -27.6136
  41   1.0000      -0.962846       -26.2004
  42   1.0000      -0.933135       -25.3919
  43   1.0000      -0.806396       -21.9431
  44   1.0000      -0.765139       -20.8205
  45   1.0000      -0.705851       -19.2072
  46   1.0000      -0.690185       -18.7809
  47   1.0000      -0.674644       -18.3580
  48   1.0000      -0.638684       -17.3795
  49   1.0000      -0.636593       -17.3226
  50   1.0000      -0.620331       -16.8801
  51   1.0000      -0.607182       -16.5222
  52   1.0000      -0.597436       -16.2571
  53   1.0000      -0.594874       -16.1873
  54   1.0000      -0.585041       -15.9198
  55   1.0000      -0.576281       -15.6814
  56   1.0000      -0.558177       -15.1888
  57   1.0000      -0.543108       -14.7787
  58   1.0000      -0.537338       -14.6217
  59   1.0000      -0.524493       -14.2722
  60   1.0000      -0.515465       -14.0265
  61   1.0000      -0.498185       -13.5563
  62   1.0000      -0.467035       -12.7087
  63   1.0000      -0.463576       -12.6145
  64   1.0000      -0.453928       -12.3520
  65   1.0000      -0.443055       -12.0561
  66   1.0000      -0.435129       -11.8405
  67   1.0000      -0.429732       -11.6936
  68   1.0000      -0.429609       -11.6903
  69   1.0000      -0.409151       -11.1336
  70   1.0000      -0.401190       -10.9169
  71   1.0000      -0.396808       -10.7977
  72   0.0000       0.004853         0.1321
  73   0.0000       0.014348         0.3904
  74   0.0000       0.020629         0.5613
  75   0.0000       0.022593         0.6148
  76   0.0000       0.030067         0.8182

E(0)                                       ...  -3028.435809852
E(0)                                       ...  -3028.435809852
E(CORR)(strong-pairs)                      ...     -2.869055216
E(CORR)(weak-pairs)                        ...     -0.035270353
E(CORR)(corrected)                         ...     -2.904325569
E(TOT)                                     ...  -3031.340135421
E(CCSD(T))                                 ...  -3031.457722378
FINAL SINGLE POINT ENERGY     -3031.457722377884

DIPOLE MOMENT
-------------
                                X             Y             Z
Electronic contribution:     40.35935       4.18973       1.54889
Nuclear contribution   :    -45.37310      -3.46551      -1.85112
                        -----------------------------------------
Total Dipole Moment    :     -5.01374       0.72421      -0.30223
                        -----------------------------------------
Magnitude (a.u.)       :      5.07478
Magnitude (Debye)      :     12.89908

Rotational constants in cm-1:     0.019175     0.011865     0.010559
Rotational constants in MHz :   574.839798   355.715805   316.542130

                             ****ORCA TERMINATED NORMALLY****
TOTAL RUN TIME: 0 days 20 hours 9 minutes 47 seconds 217 msec
