                         Program Version 4.1.2  - RELEASE  -
|  1> ! aug-cc-pVTZ aug-cc-pVTZ/C DLPNO-CCSD(T1) TightSCF NormalPNO UNO MiniPrint AutoAux
|  2> %pal nproc 10 end
|  3> %maxcore 20000
|  4> %mdci
|  5>      density none
|  6> end
|  7>
|  8> * xyz 0 6
|  9>  O     -0.33784600     -0.15505900     -0.56194000
| 10>  C     -1.31657400     -1.07266000     -0.46895700
| 11>  C     -2.95125600     -0.07753000     -0.09475500
| 12>  C     -2.17979200      1.09096400     -0.21965200
| 13>  C     -2.01371800      1.77364900     -1.52797200
| 14> Fe      1.41460000      0.04729900      0.03944400
| 15> Cl      1.90516300      2.04881500     -0.76727500
| 16>  C     -1.58740800      1.77089200      0.96107200
| 17> Cl      2.53605300     -1.67232600     -0.75203800
| 18> Cl      1.33959000      0.04888400      2.25917500
| 19>  H     -3.54695400     -0.31634300     -0.97383800
| 20>  H     -2.37686700      2.40968100      1.38889600
| 21>  H     -1.27326200      1.07607700      1.74130400
| 22>  H     -0.74239200      2.40307400      0.68251100
| 23>  H     -2.58188000      2.71525900     -1.46922900
| 24>  H     -0.96435000      2.03572500     -1.69288400
| 25>  H     -2.40289100      1.19371500     -2.36618900
| 26>  C     -3.60889700     -0.46792000      1.21255600
| 27>  H     -4.49223400      0.15894100      1.38688000
| 28>  H     -3.94919100     -1.50613100      1.17940200
| 29>  H     -2.94762700     -0.35705000      2.07408500
| 30>  C     -1.17151100     -2.03904900      0.68381200
| 31>  H     -2.01669300     -2.72473100      0.76946900
| 32>  H     -0.26951600     -2.62763800      0.46600400
| 33>  H     -0.99596300     -1.52593000      1.63009000
| 34>  C     -1.63167900     -1.72429200     -1.80011400
| 35>  H     -0.74187300     -2.30389600     -2.07804300
| 36>  H     -2.49166100     -2.39692700     -1.74042200
| 37>  H     -1.79216400     -0.97878300     -2.58167700
| 38> *
| 39>
| 40>
| 41>                          ****END OF INPUT****

CARTESIAN COORDINATES (ANGSTROEM)
---------------------------------
  O     -0.337846   -0.155059   -0.561940
  C     -1.316574   -1.072660   -0.468957
  C     -2.951256   -0.077530   -0.094755
  C     -2.179792    1.090964   -0.219652
  C     -2.013718    1.773649   -1.527972
  Fe     1.414600    0.047299    0.039444
  Cl     1.905163    2.048815   -0.767275
  C     -1.587408    1.770892    0.961072
  Cl     2.536053   -1.672326   -0.752038
  Cl     1.339590    0.048884    2.259175
  H     -3.546954   -0.316343   -0.973838
  H     -2.376867    2.409681    1.388896
  H     -1.273262    1.076077    1.741304
  H     -0.742392    2.403074    0.682511
  H     -2.581880    2.715259   -1.469229
  H     -0.964350    2.035725   -1.692884
  H     -2.402891    1.193715   -2.366189
  C     -3.608897   -0.467920    1.212556
  H     -4.492234    0.158941    1.386880
  H     -3.949191   -1.506131    1.179402
  H     -2.947627   -0.357050    2.074085
  C     -1.171511   -2.039049    0.683812
  H     -2.016693   -2.724731    0.769469
  H     -0.269516   -2.627638    0.466004
  H     -0.995963   -1.525930    1.630090
  C     -1.631679   -1.724292   -1.800114
  H     -0.741873   -2.303896   -2.078043
  H     -2.491661   -2.396927   -1.740422
  H     -1.792164   -0.978783   -2.581677

ORBITAL ENERGIES
----------------
                 SPIN UP ORBITALS
  NO   OCC          E(Eh)            E(eV)
   0   1.0000    -261.550327     -7117.1462
   1   1.0000    -104.775979     -2851.0993
   2   1.0000    -104.775952     -2851.0986
   3   1.0000    -104.773804     -2851.0401
   4   1.0000     -32.218219      -876.7023
   5   1.0000     -27.694131      -753.5956
   6   1.0000     -27.693950      -753.5907
   7   1.0000     -27.693672      -753.5831
   8   1.0000     -20.551872      -559.2449
   9   1.0000     -11.382809      -309.7420
  10   1.0000     -11.373306      -309.4834
  11   1.0000     -11.279853      -306.9404
  12   1.0000     -11.272173      -306.7314
  13   1.0000     -11.267543      -306.6054
  14   1.0000     -11.262052      -306.4560
  15   1.0000     -11.253170      -306.2143
  16   1.0000     -11.248131      -306.0772
  17   1.0000     -10.502574      -285.7896
  18   1.0000     -10.502448      -285.7861
  19   1.0000     -10.500338      -285.7287
  20   1.0000      -7.969466      -216.8602
  21   1.0000      -7.969271      -216.8549
  22   1.0000      -7.968617      -216.8371
  23   1.0000      -7.968569      -216.8358
  24   1.0000      -7.968540      -216.8350
  25   1.0000      -7.968448      -216.8325
  26   1.0000      -7.967162      -216.7975
  27   1.0000      -7.966448      -216.7781
  28   1.0000      -7.966358      -216.7756
  29   1.0000      -4.573699      -124.4567
  30   1.0000      -3.186361       -86.7053
  31   1.0000      -3.185797       -86.6899
  32   1.0000      -3.185234       -86.6746
  33   1.0000      -1.391464       -37.8637
  34   1.0000      -1.177172       -32.0325
  35   1.0000      -1.086359       -29.5613
  36   1.0000      -1.047778       -28.5115
  37   1.0000      -1.042288       -28.3621
  38   1.0000      -1.041338       -28.3362
  39   1.0000      -1.040397       -28.3106
  40   1.0000      -1.004435       -27.3321
  41   1.0000      -0.981849       -26.7175
  42   1.0000      -0.934083       -25.4177
  43   1.0000      -0.914420       -24.8826
  44   1.0000      -0.903334       -24.5810
  45   1.0000      -0.903293       -24.5798
  46   1.0000      -0.894590       -24.3430
  47   1.0000      -0.894270       -24.3343
  48   1.0000      -0.785321       -21.3697
  49   1.0000      -0.764615       -20.8062
  50   1.0000      -0.697659       -18.9843
  51   1.0000      -0.694333       -18.8938
  52   1.0000      -0.675380       -18.3780
  53   1.0000      -0.651447       -17.7268
  54   1.0000      -0.644000       -17.5241
  55   1.0000      -0.625804       -17.0290
  56   1.0000      -0.600718       -16.3464
  57   1.0000      -0.593274       -16.1438
  58   1.0000      -0.589909       -16.0522
  59   1.0000      -0.584737       -15.9115
  60   1.0000      -0.574554       -15.6344
  61   1.0000      -0.563609       -15.3366
  62   1.0000      -0.557089       -15.1592
  63   1.0000      -0.547507       -14.8984
  64   1.0000      -0.537429       -14.6242
  65   1.0000      -0.531502       -14.4629
  66   1.0000      -0.509853       -13.8738
  67   1.0000      -0.477711       -12.9992
  68   1.0000      -0.463120       -12.6021
  69   1.0000      -0.451187       -12.2774
  70   1.0000      -0.429730       -11.6936
  71   1.0000      -0.426175       -11.5968
  72   1.0000      -0.423442       -11.5224
  73   1.0000      -0.416392       -11.3306
  74   1.0000      -0.414462       -11.2781
  75   1.0000      -0.412990       -11.2380
  76   1.0000      -0.389019       -10.5858
  77   0.0000       0.008516         0.2317
  78   0.0000       0.019591         0.5331
  79   0.0000       0.021804         0.5933
  80   0.0000       0.030190         0.8215
  81   0.0000       0.034440         0.9372

                 SPIN DOWN ORBITALS
  NO   OCC          E(Eh)            E(eV)
   0   1.0000    -261.546782     -7117.0498
   1   1.0000    -104.774623     -2851.0624
   2   1.0000    -104.774610     -2851.0621
   3   1.0000    -104.772371     -2851.0012
   4   1.0000     -32.056178      -872.2929
   5   1.0000     -27.534243      -749.2448
   6   1.0000     -27.534081      -749.2404
   7   1.0000     -27.533616      -749.2278
   8   1.0000     -20.546322      -559.0939
   9   1.0000     -11.382757      -309.7406
  10   1.0000     -11.373298      -309.4832
  11   1.0000     -11.279523      -306.9314
  12   1.0000     -11.272162      -306.7311
  13   1.0000     -11.267564      -306.6060
  14   1.0000     -11.262084      -306.4569
  15   1.0000     -11.253073      -306.2117
  16   1.0000     -11.248090      -306.0761
  17   1.0000     -10.501102      -285.7495
  18   1.0000     -10.501025      -285.7474
  19   1.0000     -10.498804      -285.6870
  20   1.0000      -7.966985      -216.7927
  21   1.0000      -7.966978      -216.7925
  22   1.0000      -7.966454      -216.7782
  23   1.0000      -7.966381      -216.7762
  24   1.0000      -7.966360      -216.7757
  25   1.0000      -7.966265      -216.7731
  26   1.0000      -7.964755      -216.7320
  27   1.0000      -7.964054      -216.7129
  28   1.0000      -7.963976      -216.7108
  29   1.0000      -4.131460      -112.4227
  30   1.0000      -2.653238       -72.1983
  31   1.0000      -2.653165       -72.1963
  32   1.0000      -2.652594       -72.1808
  33   1.0000      -1.377193       -37.4753
  34   1.0000      -1.175944       -31.9991
  35   1.0000      -1.083645       -29.4875
  36   1.0000      -1.040320       -28.3086
  37   1.0000      -1.033376       -28.1196
  38   1.0000      -1.022375       -27.8202
  39   1.0000      -1.020303       -27.7639
  40   1.0000      -1.004062       -27.3219
  41   1.0000      -0.981238       -26.7009
  42   1.0000      -0.931278       -25.3414
  43   1.0000      -0.796725       -21.6800
  44   1.0000      -0.766621       -20.8608
  45   1.0000      -0.697824       -18.9887
  46   1.0000      -0.693543       -18.8723
  47   1.0000      -0.677379       -18.4324
  48   1.0000      -0.651993       -17.7416
  49   1.0000      -0.642746       -17.4900
  50   1.0000      -0.625848       -17.0302
  51   1.0000      -0.599789       -16.3211
  52   1.0000      -0.593239       -16.1429
  53   1.0000      -0.589778       -16.0487
  54   1.0000      -0.584011       -15.8917
  55   1.0000      -0.574437       -15.6312
  56   1.0000      -0.563662       -15.3380
  57   1.0000      -0.556372       -15.1397
  58   1.0000      -0.546730       -14.8773
  59   1.0000      -0.533605       -14.5201
  60   1.0000      -0.529142       -14.3987
  61   1.0000      -0.503603       -13.7037
  62   1.0000      -0.474462       -12.9108
  63   1.0000      -0.466596       -12.6967
  64   1.0000      -0.461565       -12.5598
  65   1.0000      -0.437631       -11.9085
  66   1.0000      -0.434388       -11.8203
  67   1.0000      -0.433176       -11.7873
  68   1.0000      -0.423052       -11.5118
  69   1.0000      -0.412552       -11.2261
  70   1.0000      -0.400397       -10.8954
  71   1.0000      -0.385474       -10.4893
  72   0.0000       0.008517         0.2318
  73   0.0000       0.019528         0.5314
  74   0.0000       0.021786         0.5928
  75   0.0000       0.030221         0.8223
  76   0.0000       0.034085         0.9275

E(0)                                       ...  -3028.421888085
E(0)                                       ...  -3028.421888085
E(CORR)(strong-pairs)                      ...     -2.871711619
E(CORR)(weak-pairs)                        ...     -0.035518864
E(CORR)(corrected)                         ...     -2.907230483
E(TOT)                                     ...  -3031.329118567
E(CCSD(T))                                 ...  -3031.448300636
FINAL SINGLE POINT ENERGY     -3031.448300635518

DIPOLE MOMENT
-------------
                                X             Y             Z
Electronic contribution:     40.90122       3.49310       2.22910
Nuclear contribution   :    -45.54938      -3.40794      -2.69972
                        -----------------------------------------
Total Dipole Moment    :     -4.64816       0.08516      -0.47061
                        -----------------------------------------
Magnitude (a.u.)       :      4.67270
Magnitude (Debye)      :     11.87706

Rotational constants in cm-1:     0.019336     0.011539     0.010639
Rotational constants in MHz :   579.693604   345.943978   318.945278

                             ****ORCA TERMINATED NORMALLY****
TOTAL RUN TIME: 0 days 21 hours 14 minutes 18 seconds 168 msec
