                         Program Version 4.1.2  - RELEASE  -
|  1> ! aug-cc-pVTZ aug-cc-pVTZ/C DLPNO-CCSD(T1) TightSCF NormalPNO UNO MiniPrint AutoAux
|  2> %pal nproc 10 end
|  3> %maxcore 20000
|  4> %mdci
|  5>      density none
|  6> end
|  7>
|  8> * xyz 0 6
|  9>  O     -0.35366800     -0.12386000     -0.44965000
| 10>  C     -1.26792000     -1.11869600     -0.29761200
| 11>  C     -2.50079900     -0.48632700      0.59828100
| 12>  C     -2.76270300      0.77043500     -0.05362800
| 13>  C     -3.74757400      0.86187700     -1.15882800
| 14> Fe      1.44099800      0.16914700     -0.07478400
| 15> Cl      1.63114200      2.28011500     -0.73249900
| 16>  C     -2.00540500      1.96390600      0.27266600
| 17> Cl      2.61776400     -1.32519600     -1.18017400
| 18> Cl      1.67528900     -0.00057300      2.12837100
| 19>  H     -3.33176600     -1.18016600      0.43856700
| 20>  H     -2.38567000      2.87993600     -0.18108400
| 21>  H     -1.78807700      2.08414900      1.33598400
| 22>  H     -1.01013500      1.71685400     -0.18008000
| 23>  H     -4.57344900      1.49810900     -0.80340500
| 24>  H     -3.31682400      1.38852000     -2.02002600
| 25>  H     -4.15546200     -0.10129500     -1.46421000
| 26>  C     -2.11486100     -0.38326400      2.08091100
| 27>  H     -2.82687800      0.25174400      2.61795600
| 28>  H     -2.14161300     -1.37204300      2.54147600
| 29>  H     -1.10896200      0.02239900      2.21060200
| 30>  C     -0.72481800     -2.32905800      0.48166100
| 31>  H     -1.50785000     -3.06871200      0.67758400
| 32>  H      0.04580800     -2.79121200     -0.14365900
| 33>  H     -0.25571900     -2.03170600      1.41945300
| 34>  C     -1.77275800     -1.58170200     -1.67350900
| 35>  H     -0.94439400     -2.09483900     -2.16991900
| 36>  H     -2.61524100     -2.27785200     -1.59629900
| 37>  H     -2.05064800     -0.73774900     -2.30787300
| 38> *
| 39>
| 40>
| 41>                          ****END OF INPUT****

CARTESIAN COORDINATES (ANGSTROEM)
---------------------------------
  O     -0.353668   -0.123860   -0.449650
  C     -1.267920   -1.118696   -0.297612
  C     -2.500799   -0.486327    0.598281
  C     -2.762703    0.770435   -0.053628
  C     -3.747574    0.861877   -1.158828
  Fe     1.440998    0.169147   -0.074784
  Cl     1.631142    2.280115   -0.732499
  C     -2.005405    1.963906    0.272666
  Cl     2.617764   -1.325196   -1.180174
  Cl     1.675289   -0.000573    2.128371
  H     -3.331766   -1.180166    0.438567
  H     -2.385670    2.879936   -0.181084
  H     -1.788077    2.084149    1.335984
  H     -1.010135    1.716854   -0.180080
  H     -4.573449    1.498109   -0.803405
  H     -3.316824    1.388520   -2.020026
  H     -4.155462   -0.101295   -1.464210
  C     -2.114861   -0.383264    2.080911
  H     -2.826878    0.251744    2.617956
  H     -2.141613   -1.372043    2.541476
  H     -1.108962    0.022399    2.210602
  C     -0.724818   -2.329058    0.481661
  H     -1.507850   -3.068712    0.677584
  H      0.045808   -2.791212   -0.143659
  H     -0.255719   -2.031706    1.419453
  C     -1.772758   -1.581702   -1.673509
  H     -0.944394   -2.094839   -2.169919
  H     -2.615241   -2.277852   -1.596299
  H     -2.050648   -0.737749   -2.307873

ORBITAL ENERGIES
----------------
                 SPIN UP ORBITALS
  NO   OCC          E(Eh)            E(eV)
   0   1.0000    -261.538753     -7116.8313
   1   1.0000    -104.767778     -2850.8762
   2   1.0000    -104.767551     -2850.8700
   3   1.0000    -104.765209     -2850.8063
   4   1.0000     -32.206686      -876.3885
   5   1.0000     -27.682531      -753.2800
   6   1.0000     -27.682444      -753.2776
   7   1.0000     -27.682153      -753.2697
   8   1.0000     -20.531581      -558.6927
   9   1.0000     -11.406027      -310.3738
  10   1.0000     -11.341052      -308.6057
  11   1.0000     -11.307732      -307.6990
  12   1.0000     -11.291344      -307.2531
  13   1.0000     -11.277449      -306.8750
  14   1.0000     -11.255204      -306.2697
  15   1.0000     -11.241536      -305.8977
  16   1.0000     -11.231535      -305.6256
  17   1.0000     -10.494348      -285.5657
  18   1.0000     -10.494057      -285.5578
  19   1.0000     -10.491781      -285.4959
  20   1.0000      -7.961234      -216.6362
  21   1.0000      -7.960897      -216.6270
  22   1.0000      -7.960392      -216.6133
  23   1.0000      -7.960329      -216.6116
  24   1.0000      -7.960139      -216.6064
  25   1.0000      -7.960042      -216.6038
  26   1.0000      -7.958586      -216.5641
  27   1.0000      -7.957890      -216.5452
  28   1.0000      -7.957810      -216.5430
  29   1.0000      -4.562214      -124.1441
  30   1.0000      -3.174686       -86.3876
  31   1.0000      -3.174428       -86.3806
  32   1.0000      -3.173853       -86.3649
  33   1.0000      -1.366297       -37.1788
  34   1.0000      -1.204745       -32.7828
  35   1.0000      -1.092799       -29.7366
  36   1.0000      -1.046638       -28.4805
  37   1.0000      -1.038577       -28.2611
  38   1.0000      -1.033420       -28.1208
  39   1.0000      -1.031599       -28.0712
  40   1.0000      -1.020804       -27.7775
  41   1.0000      -0.966443       -26.2983
  42   1.0000      -0.934546       -25.4303
  43   1.0000      -0.903742       -24.5921
  44   1.0000      -0.891899       -24.2698
  45   1.0000      -0.891776       -24.2665
  46   1.0000      -0.883744       -24.0479
  47   1.0000      -0.883526       -24.0420
  48   1.0000      -0.805394       -21.9159
  49   1.0000      -0.767460       -20.8837
  50   1.0000      -0.716199       -19.4888
  51   1.0000      -0.698960       -19.0197
  52   1.0000      -0.680141       -18.5076
  53   1.0000      -0.648246       -17.6397
  54   1.0000      -0.645616       -17.5681
  55   1.0000      -0.631350       -17.1799
  56   1.0000      -0.611803       -16.6480
  57   1.0000      -0.601745       -16.3743
  58   1.0000      -0.591001       -16.0819
  59   1.0000      -0.585260       -15.9257
  60   1.0000      -0.570206       -15.5161
  61   1.0000      -0.562228       -15.2990
  62   1.0000      -0.554227       -15.0813
  63   1.0000      -0.536900       -14.6098
  64   1.0000      -0.527524       -14.3547
  65   1.0000      -0.517045       -14.0695
  66   1.0000      -0.499776       -13.5996
  67   1.0000      -0.463776       -12.6200
  68   1.0000      -0.458936       -12.4883
  69   1.0000      -0.439373       -11.9559
  70   1.0000      -0.430140       -11.7047
  71   1.0000      -0.418700       -11.3934
  72   1.0000      -0.414075       -11.2675
  73   1.0000      -0.410031       -11.1575
  74   1.0000      -0.406972       -11.0743
  75   1.0000      -0.405693       -11.0395
  76   1.0000      -0.404826       -11.0159
  77   0.0000      -0.003443        -0.0937
  78   0.0000       0.001601         0.0436
  79   0.0000       0.017207         0.4682
  80   0.0000       0.018117         0.4930
  81   0.0000       0.027726         0.7545

                 SPIN DOWN ORBITALS
  NO   OCC          E(Eh)            E(eV)
   0   1.0000    -261.535205     -7116.7347
   1   1.0000    -104.766437     -2850.8397
   2   1.0000    -104.766245     -2850.8345
   3   1.0000    -104.763809     -2850.7682
   4   1.0000     -32.044650      -871.9793
   5   1.0000     -27.522775      -748.9328
   6   1.0000     -27.522549      -748.9266
   7   1.0000     -27.522019      -748.9122
   8   1.0000     -20.525489      -558.5270
   9   1.0000     -11.406036      -310.3740
  10   1.0000     -11.340908      -308.6018
  11   1.0000     -11.307732      -307.6990
  12   1.0000     -11.291199      -307.2492
  13   1.0000     -11.277467      -306.8755
  14   1.0000     -11.255225      -306.2703
  15   1.0000     -11.241434      -305.8950
  16   1.0000     -11.231490      -305.6244
  17   1.0000     -10.492903      -285.5264
  18   1.0000     -10.492654      -285.5196
  19   1.0000     -10.490281      -285.4551
  20   1.0000      -7.958782      -216.5695
  21   1.0000      -7.958583      -216.5641
  22   1.0000      -7.958277      -216.5557
  23   1.0000      -7.958200      -216.5536
  24   1.0000      -7.958037      -216.5492
  25   1.0000      -7.957928      -216.5462
  26   1.0000      -7.956269      -216.5011
  27   1.0000      -7.955535      -216.4811
  28   1.0000      -7.955466      -216.4792
  29   1.0000      -4.120056      -112.1124
  30   1.0000      -2.641984       -71.8920
  31   1.0000      -2.641893       -71.8896
  32   1.0000      -2.641007       -71.8654
  33   1.0000      -1.350917       -36.7603
  34   1.0000      -1.203541       -32.7500
  35   1.0000      -1.090199       -29.6658
  36   1.0000      -1.045724       -28.4556
  37   1.0000      -1.024570       -27.8800
  38   1.0000      -1.019898       -27.7528
  39   1.0000      -1.013627       -27.5822
  40   1.0000      -1.011921       -27.5358
  41   1.0000      -0.965649       -26.2766
  42   1.0000      -0.933809       -25.4102
  43   1.0000      -0.809794       -22.0356
  44   1.0000      -0.775178       -21.0937
  45   1.0000      -0.717055       -19.5121
  46   1.0000      -0.698381       -19.0039
  47   1.0000      -0.680407       -18.5148
  48   1.0000      -0.648407       -17.6440
  49   1.0000      -0.646634       -17.5958
  50   1.0000      -0.630092       -17.1457
  51   1.0000      -0.611913       -16.6510
  52   1.0000      -0.601817       -16.3763
  53   1.0000      -0.590879       -16.0786
  54   1.0000      -0.583983       -15.8910
  55   1.0000      -0.568539       -15.4707
  56   1.0000      -0.562109       -15.2958
  57   1.0000      -0.553716       -15.0674
  58   1.0000      -0.536555       -14.6004
  59   1.0000      -0.525108       -14.2889
  60   1.0000      -0.513111       -13.9625
  61   1.0000      -0.494512       -13.4564
  62   1.0000      -0.461850       -12.5676
  63   1.0000      -0.459628       -12.5071
  64   1.0000      -0.444183       -12.0868
  65   1.0000      -0.437952       -11.9173
  66   1.0000      -0.429231       -11.6800
  67   1.0000      -0.425771       -11.5858
  68   1.0000      -0.424779       -11.5588
  69   1.0000      -0.404733       -11.0134
  70   1.0000      -0.396249       -10.7825
  71   1.0000      -0.392142       -10.6707
  72   0.0000      -0.003574        -0.0973
  73   0.0000       0.001588         0.0432
  74   0.0000       0.017202         0.4681
  75   0.0000       0.018104         0.4926
  76   0.0000       0.027745         0.7550

E(0)                                       ...  -3028.424984836
E(0)                                       ...  -3028.424984836
E(CORR)(strong-pairs)                      ...     -2.872187319
E(CORR)(weak-pairs)                        ...     -0.035314344
E(CORR)(corrected)                         ...     -2.907501663
E(TOT)                                     ...  -3031.332486499
E(CCSD(T))                                 ...  -3031.450541692
FINAL SINGLE POINT ENERGY     -3031.450541692089

DIPOLE MOMENT
-------------
                                X             Y             Z
Electronic contribution:     40.46741       7.55017      -0.46796
Nuclear contribution   :    -46.21205      -7.54282       0.33291
                        -----------------------------------------
Total Dipole Moment    :     -5.74464       0.00735      -0.13505
                        -----------------------------------------
Magnitude (a.u.)       :      5.74623
Magnitude (Debye)      :     14.60576

Rotational constants in cm-1:     0.019461     0.010998     0.010359
Rotational constants in MHz :   583.412558   329.709298   310.545125

                             ****ORCA TERMINATED NORMALLY****
TOTAL RUN TIME: 0 days 20 hours 39 minutes 43 seconds 226 msec
