                         Program Version 4.1.2  - RELEASE  -
|  1> ! aug-cc-pVTZ aug-cc-pVTZ/C DLPNO-CCSD(T1) TightSCF NormalPNO UNO MiniPrint AutoAux
|  2> %pal nproc 10 end
|  3> %maxcore 20000
|  4> %mdci
|  5>      density none
|  6> end
|  7>
|  8> * xyz 0 6
|  9>  O     -0.33472200     -0.25278800     -0.60071800
| 10>  C     -1.38005700     -1.17189100     -0.44791500
| 11>  C     -2.81315300     -0.13425000     -0.11695700
| 12>  C     -2.07970700      1.12187000     -0.24314000
| 13>  C     -1.95729400      1.79832800     -1.55080400
| 14> Fe      1.38113400      0.03861200      0.02819700
| 15> Cl      1.76061500      2.08015300     -0.77481700
| 16>  C     -1.57118300      1.83571700      0.94470400
| 17> Cl      2.66946800     -1.58413400     -0.69977200
| 18> Cl      1.25515800      0.08913900      2.25379800
| 19>  H     -3.46931700     -0.28977700     -0.97543300
| 20>  H     -2.43401900      2.37158100      1.37615200
| 21>  H     -1.19927300      1.15622600      1.71482200
| 22>  H     -0.79624400      2.55999900      0.68826700
| 23>  H     -2.61082600      2.68601900     -1.51256400
| 24>  H     -0.93213000      2.15845000     -1.69158000
| 25>  H     -2.26897500      1.17143300     -2.38663900
| 26>  C     -3.52340300     -0.42520300      1.19664900
| 27>  H     -4.35036100      0.27694800      1.35637000
| 28>  H     -3.94864400     -1.43196600      1.17264400
| 29>  H     -2.85725400     -0.36552500      2.05980900
| 30>  C     -1.15446000     -2.12590700      0.70647500
| 31>  H     -1.98957000     -2.81991200      0.83603900
| 32>  H     -0.25592500     -2.70982600      0.46923400
| 33>  H     -0.95881700     -1.59906600      1.64171000
| 34>  C     -1.64480400     -1.88259600     -1.76287700
| 35>  H     -0.75030600     -2.46380500     -2.01581000
| 36>  H     -2.50173600     -2.56050400     -1.69238900
| 37>  H     -1.81304200     -1.16596500     -2.57134100
| 38> *
| 39>
| 40>
| 41>                          ****END OF INPUT****

CARTESIAN COORDINATES (ANGSTROEM)
---------------------------------
  O     -0.334722   -0.252788   -0.600718
  C     -1.380057   -1.171891   -0.447915
  C     -2.813153   -0.134250   -0.116957
  C     -2.079707    1.121870   -0.243140
  C     -1.957294    1.798328   -1.550804
  Fe     1.381134    0.038612    0.028197
  Cl     1.760615    2.080153   -0.774817
  C     -1.571183    1.835717    0.944704
  Cl     2.669468   -1.584134   -0.699772
  Cl     1.255158    0.089139    2.253798
  H     -3.469317   -0.289777   -0.975433
  H     -2.434019    2.371581    1.376152
  H     -1.199273    1.156226    1.714822
  H     -0.796244    2.559999    0.688267
  H     -2.610826    2.686019   -1.512564
  H     -0.932130    2.158450   -1.691580
  H     -2.268975    1.171433   -2.386639
  C     -3.523403   -0.425203    1.196649
  H     -4.350361    0.276948    1.356370
  H     -3.948644   -1.431966    1.172644
  H     -2.857254   -0.365525    2.059809
  C     -1.154460   -2.125907    0.706475
  H     -1.989570   -2.819912    0.836039
  H     -0.255925   -2.709826    0.469234
  H     -0.958817   -1.599066    1.641710
  C     -1.644804   -1.882596   -1.762877
  H     -0.750306   -2.463805   -2.015810
  H     -2.501736   -2.560504   -1.692389
  H     -1.813042   -1.165965   -2.571341

ORBITAL ENERGIES
----------------
                 SPIN UP ORBITALS
  NO   OCC          E(Eh)            E(eV)
   0   1.0000    -261.545326     -7117.0101
   1   1.0000    -104.774162     -2851.0499
   2   1.0000    -104.773468     -2851.0310
   3   1.0000    -104.769737     -2850.9295
   4   1.0000     -32.213203      -876.5658
   5   1.0000     -27.689095      -753.4586
   6   1.0000     -27.688975      -753.4553
   7   1.0000     -27.688650      -753.4465
   8   1.0000     -20.544112      -559.0337
   9   1.0000     -11.403946      -310.3172
  10   1.0000     -11.355035      -308.9862
  11   1.0000     -11.290224      -307.2226
  12   1.0000     -11.282572      -307.0144
  13   1.0000     -11.277900      -306.8873
  14   1.0000     -11.264320      -306.5177
  15   1.0000     -11.242360      -305.9202
  16   1.0000     -11.237055      -305.7758
  17   1.0000     -10.500660      -285.7375
  18   1.0000     -10.500072      -285.7215
  19   1.0000     -10.496279      -285.6183
  20   1.0000      -7.967502      -216.8068
  21   1.0000      -7.966972      -216.7923
  22   1.0000      -7.966731      -216.7858
  23   1.0000      -7.966640      -216.7833
  24   1.0000      -7.966096      -216.7685
  25   1.0000      -7.966058      -216.7674
  26   1.0000      -7.963078      -216.6864
  27   1.0000      -7.962401      -216.6679
  28   1.0000      -7.962310      -216.6655
  29   1.0000      -4.568697      -124.3206
  30   1.0000      -3.181180       -86.5643
  31   1.0000      -3.180916       -86.5571
  32   1.0000      -3.180341       -86.5415
  33   1.0000      -1.360950       -37.0333
  34   1.0000      -1.184082       -32.2205
  35   1.0000      -1.087392       -29.5894
  36   1.0000      -1.044869       -28.4323
  37   1.0000      -1.040596       -28.3161
  38   1.0000      -1.039537       -28.2872
  39   1.0000      -1.036717       -28.2105
  40   1.0000      -1.016240       -27.6533
  41   1.0000      -0.969959       -26.3939
  42   1.0000      -0.933738       -25.4083
  43   1.0000      -0.906242       -24.6601
  44   1.0000      -0.898277       -24.4433
  45   1.0000      -0.898241       -24.4424
  46   1.0000      -0.890279       -24.2257
  47   1.0000      -0.889890       -24.2151
  48   1.0000      -0.791154       -21.5284
  49   1.0000      -0.762056       -20.7366
  50   1.0000      -0.703199       -19.1350
  51   1.0000      -0.690240       -18.7824
  52   1.0000      -0.673752       -18.3337
  53   1.0000      -0.640558       -17.4305
  54   1.0000      -0.632005       -17.1977
  55   1.0000      -0.630317       -17.1518
  56   1.0000      -0.600920       -16.3519
  57   1.0000      -0.599495       -16.3131
  58   1.0000      -0.595006       -16.1909
  59   1.0000      -0.581950       -15.8357
  60   1.0000      -0.578172       -15.7329
  61   1.0000      -0.558482       -15.1971
  62   1.0000      -0.553440       -15.0599
  63   1.0000      -0.540665       -14.7123
  64   1.0000      -0.532406       -14.4875
  65   1.0000      -0.525964       -14.3122
  66   1.0000      -0.505272       -13.7492
  67   1.0000      -0.472558       -12.8590
  68   1.0000      -0.461091       -12.5469
  69   1.0000      -0.447568       -12.1790
  70   1.0000      -0.427104       -11.6221
  71   1.0000      -0.425357       -11.5745
  72   1.0000      -0.420669       -11.4470
  73   1.0000      -0.413956       -11.2643
  74   1.0000      -0.412205       -11.2167
  75   1.0000      -0.409665       -11.1475
  76   1.0000      -0.405356       -11.0303
  77   0.0000       0.006059         0.1649
  78   0.0000       0.017554         0.4777
  79   0.0000       0.021068         0.5733
  80   0.0000       0.024412         0.6643
  81   0.0000       0.030322         0.8251

                 SPIN DOWN ORBITALS
  NO   OCC          E(Eh)            E(eV)
   0   1.0000    -261.541784     -7116.9138
   1   1.0000    -104.772891     -2851.0153
   2   1.0000    -104.772135     -2850.9947
   3   1.0000    -104.768307     -2850.8906
   4   1.0000     -32.051173      -872.1568
   5   1.0000     -27.529307      -749.1105
   6   1.0000     -27.529085      -749.1045
   7   1.0000     -27.528535      -749.0895
   8   1.0000     -20.537971      -558.8666
   9   1.0000     -11.403970      -310.3178
  10   1.0000     -11.354859      -308.9814
  11   1.0000     -11.290020      -307.2171
  12   1.0000     -11.282555      -307.0139
  13   1.0000     -11.277916      -306.8877
  14   1.0000     -11.264333      -306.5181
  15   1.0000     -11.242279      -305.9180
  16   1.0000     -11.237024      -305.7750
  17   1.0000     -10.499292      -285.7003
  18   1.0000     -10.498636      -285.6824
  19   1.0000     -10.494749      -285.5766
  20   1.0000      -7.965228      -216.7449
  21   1.0000      -7.964696      -216.7304
  22   1.0000      -7.964604      -216.7279
  23   1.0000      -7.964494      -216.7249
  24   1.0000      -7.964028      -216.7122
  25   1.0000      -7.963957      -216.7103
  26   1.0000      -7.960736      -216.6226
  27   1.0000      -7.959974      -216.6019
  28   1.0000      -7.959907      -216.6001
  29   1.0000      -4.126523      -112.2884
  30   1.0000      -2.648398       -72.0666
  31   1.0000      -2.648313       -72.0643
  32   1.0000      -2.647585       -72.0444
  33   1.0000      -1.344815       -36.5943
  34   1.0000      -1.182810       -32.1859
  35   1.0000      -1.084756       -29.5177
  36   1.0000      -1.038911       -28.2702
  37   1.0000      -1.030925       -28.0529
  38   1.0000      -1.021126       -27.7863
  39   1.0000      -1.017109       -27.6769
  40   1.0000      -1.014823       -27.6147
  41   1.0000      -0.969244       -26.3745
  42   1.0000      -0.931324       -25.3426
  43   1.0000      -0.795982       -21.6598
  44   1.0000      -0.768056       -20.8999
  45   1.0000      -0.703424       -19.1411
  46   1.0000      -0.689475       -18.7616
  47   1.0000      -0.674884       -18.3645
  48   1.0000      -0.642928       -17.4949
  49   1.0000      -0.631643       -17.1879
  50   1.0000      -0.628450       -17.1010
  51   1.0000      -0.600327       -16.3357
  52   1.0000      -0.599395       -16.3104
  53   1.0000      -0.594713       -16.1830
  54   1.0000      -0.580861       -15.8060
  55   1.0000      -0.577495       -15.7144
  56   1.0000      -0.558378       -15.1942
  57   1.0000      -0.551867       -15.0171
  58   1.0000      -0.540142       -14.6980
  59   1.0000      -0.530764       -14.4428
  60   1.0000      -0.519997       -14.1498
  61   1.0000      -0.499966       -13.6048
  62   1.0000      -0.469834       -12.7848
  63   1.0000      -0.463650       -12.6166
  64   1.0000      -0.456621       -12.4253
  65   1.0000      -0.435343       -11.8463
  66   1.0000      -0.431986       -11.7549
  67   1.0000      -0.430926       -11.7261
  68   1.0000      -0.427218       -11.6252
  69   1.0000      -0.410010       -11.1569
  70   1.0000      -0.398206       -10.8357
  71   1.0000      -0.396706       -10.7949
  72   0.0000       0.006039         0.1643
  73   0.0000       0.017302         0.4708
  74   0.0000       0.021050         0.5728
  75   0.0000       0.024117         0.6563
  76   0.0000       0.030356         0.8260

E(0)                                       ...  -3028.428210200
E(0)                                       ...  -3028.428210200
E(CORR)(strong-pairs)                      ...     -2.869221927
E(CORR)(weak-pairs)                        ...     -0.035736980
E(CORR)(corrected)                         ...     -2.904958907
E(TOT)                                     ...  -3031.333169107
E(CCSD(T))                                 ...  -3031.451178776
FINAL SINGLE POINT ENERGY     -3031.451178775660

DIPOLE MOMENT
-------------
                                X             Y             Z
Electronic contribution:     39.98624       4.33550       2.22260
Nuclear contribution   :    -44.86153      -3.86816      -2.66208
                        -----------------------------------------
Total Dipole Moment    :     -4.87529       0.46735      -0.43949
                        -----------------------------------------
Magnitude (a.u.)       :      4.91731
Magnitude (Debye)      :     12.49882

Rotational constants in cm-1:     0.019043     0.011840     0.010743
Rotational constants in MHz :   570.888669   354.940487   322.073256

                             ****ORCA TERMINATED NORMALLY****
TOTAL RUN TIME: 0 days 20 hours 29 minutes 45 seconds 128 msec
