                         Program Version 4.1.2  - RELEASE  -
|  1> ! aug-cc-pVTZ aug-cc-pVTZ/C DLPNO-CCSD(T1) TightSCF NormalPNO UNO MiniPrint AutoAux
|  2> %pal nproc 10 end
|  3> %maxcore 20000
|  4> %mdci
|  5>      density none
|  6> end
|  7>
|  8> * xyz 0 6
|  9>  O     -0.31468000     -0.10901600     -0.41600700
| 10>  C     -1.22537900     -1.06090700     -0.22008800
| 11>  C     -2.54768000     -0.35465300      0.77626900
| 12>  C     -3.02710100      0.68705900     -0.05332500
| 13>  C     -4.16434600      0.48051600     -0.98711300
| 14> Fe      1.51443500      0.17262600     -0.09316300
| 15> Cl      1.82806300      2.18962600     -0.91597500
| 16>  C     -2.29299300      1.95426700     -0.11430100
| 17> Cl      2.53294900     -1.47651200     -1.13575900
| 18> Cl      1.83409600      0.10763100      2.09559400
| 19>  H     -3.24224600     -1.19462400      0.83730400
| 20>  H     -2.74235700      2.69938400     -0.77229600
| 21>  H     -2.08485800      2.37723200      0.87335800
| 22>  H     -1.28815100      1.65749100     -0.50099800
| 23>  H     -4.99462000      1.11675300     -0.64351600
| 24>  H     -3.91720400      0.82950800     -1.99728300
| 25>  H     -4.51320700     -0.55264100     -1.02042100
| 26>  C     -1.93686400      0.03889300      2.12258400
| 27>  H     -2.59615500      0.73724500      2.64857900
| 28>  H     -1.81574800     -0.84088700      2.75586200
| 29>  H     -0.95613300      0.50361100      2.00514500
| 30>  C     -0.74146200     -2.21873200      0.66287800
| 31>  H     -1.55157700     -2.90644100      0.92109400
| 32>  H      0.00675200     -2.76132700      0.07394500
| 33>  H     -0.25026400     -1.86124300      1.56760400
| 34>  C     -1.80740900     -1.56971100     -1.53903400
| 35>  H     -1.02038900     -2.14303700     -2.03942600
| 36>  H     -2.67093800     -2.22571400     -1.39049800
| 37>  H     -2.07819400     -0.74452800     -2.20098700
| 38> *
| 39>
| 40>
| 41>                          ****END OF INPUT****

CARTESIAN COORDINATES (ANGSTROEM)
---------------------------------
  O     -0.314680   -0.109016   -0.416007
  C     -1.225379   -1.060907   -0.220088
  C     -2.547680   -0.354653    0.776269
  C     -3.027101    0.687059   -0.053325
  C     -4.164346    0.480516   -0.987113
  Fe     1.514435    0.172626   -0.093163
  Cl     1.828063    2.189626   -0.915975
  C     -2.292993    1.954267   -0.114301
  Cl     2.532949   -1.476512   -1.135759
  Cl     1.834096    0.107631    2.095594
  H     -3.242246   -1.194624    0.837304
  H     -2.742357    2.699384   -0.772296
  H     -2.084858    2.377232    0.873358
  H     -1.288151    1.657491   -0.500998
  H     -4.994620    1.116753   -0.643516
  H     -3.917204    0.829508   -1.997283
  H     -4.513207   -0.552641   -1.020421
  C     -1.936864    0.038893    2.122584
  H     -2.596155    0.737245    2.648579
  H     -1.815748   -0.840887    2.755862
  H     -0.956133    0.503611    2.005145
  C     -0.741462   -2.218732    0.662878
  H     -1.551577   -2.906441    0.921094
  H      0.006752   -2.761327    0.073945
  H     -0.250264   -1.861243    1.567604
  C     -1.807409   -1.569711   -1.539034
  H     -1.020389   -2.143037   -2.039426
  H     -2.670938   -2.225714   -1.390498
  H     -2.078194   -0.744528   -2.200987

ORBITAL ENERGIES
----------------
                 SPIN UP ORBITALS
  NO   OCC          E(Eh)            E(eV)
   0   1.0000    -261.542585     -7116.9355
   1   1.0000    -104.769375     -2850.9196
   2   1.0000    -104.767632     -2850.8722
   3   1.0000    -104.766351     -2850.8373
   4   1.0000     -32.210499      -876.4922
   5   1.0000     -27.686471      -753.3872
   6   1.0000     -27.686137      -753.3781
   7   1.0000     -27.685951      -753.3730
   8   1.0000     -20.545745      -559.0781
   9   1.0000     -11.385926      -309.8268
  10   1.0000     -11.363844      -309.2259
  11   1.0000     -11.301748      -307.5362
  12   1.0000     -11.287869      -307.1585
  13   1.0000     -11.275385      -306.8188
  14   1.0000     -11.252931      -306.2078
  15   1.0000     -11.249344      -306.1102
  16   1.0000     -11.239752      -305.8492
  17   1.0000     -10.496003      -285.6108
  18   1.0000     -10.494219      -285.5622
  19   1.0000     -10.492971      -285.5283
  20   1.0000      -7.962873      -216.6808
  21   1.0000      -7.962056      -216.6586
  22   1.0000      -7.962005      -216.6572
  23   1.0000      -7.961042      -216.6310
  24   1.0000      -7.960331      -216.6116
  25   1.0000      -7.960231      -216.6089
  26   1.0000      -7.959824      -216.5978
  27   1.0000      -7.959069      -216.5773
  28   1.0000      -7.958987      -216.5750
  29   1.0000      -4.565924      -124.2451
  30   1.0000      -3.178537       -86.4924
  31   1.0000      -3.177980       -86.4772
  32   1.0000      -3.177500       -86.4642
  33   1.0000      -1.381063       -37.5806
  34   1.0000      -1.195968       -32.5439
  35   1.0000      -1.082839       -29.4656
  36   1.0000      -1.046651       -28.4808
  37   1.0000      -1.040466       -28.3125
  38   1.0000      -1.035198       -28.1692
  39   1.0000      -1.033213       -28.1152
  40   1.0000      -1.017661       -27.6920
  41   1.0000      -0.972785       -26.4708
  42   1.0000      -0.931046       -25.3350
  43   1.0000      -0.909233       -24.7415
  44   1.0000      -0.895420       -24.3656
  45   1.0000      -0.895391       -24.3648
  46   1.0000      -0.886601       -24.1256
  47   1.0000      -0.886239       -24.1158
  48   1.0000      -0.795260       -21.6401
  49   1.0000      -0.769596       -20.9418
  50   1.0000      -0.708511       -19.2796
  51   1.0000      -0.695020       -18.9124
  52   1.0000      -0.672465       -18.2987
  53   1.0000      -0.654955       -17.8222
  54   1.0000      -0.651019       -17.7151
  55   1.0000      -0.634876       -17.2759
  56   1.0000      -0.606044       -16.4913
  57   1.0000      -0.601733       -16.3740
  58   1.0000      -0.590679       -16.0732
  59   1.0000      -0.583543       -15.8790
  60   1.0000      -0.575688       -15.6653
  61   1.0000      -0.563006       -15.3202
  62   1.0000      -0.556630       -15.1467
  63   1.0000      -0.538140       -14.6435
  64   1.0000      -0.536273       -14.5927
  65   1.0000      -0.519270       -14.1301
  66   1.0000      -0.503853       -13.7105
  67   1.0000      -0.466459       -12.6930
  68   1.0000      -0.457364       -12.4455
  69   1.0000      -0.442637       -12.0448
  70   1.0000      -0.425636       -11.5822
  71   1.0000      -0.420309       -11.4372
  72   1.0000      -0.416190       -11.3251
  73   1.0000      -0.408593       -11.1184
  74   1.0000      -0.406545       -11.0627
  75   1.0000      -0.405867       -11.0442
  76   1.0000      -0.403123       -10.9695
  77   0.0000       0.002138         0.0582
  78   0.0000       0.002539         0.0691
  79   0.0000       0.017474         0.4755
  80   0.0000       0.018389         0.5004
  81   0.0000       0.027409         0.7458

                 SPIN DOWN ORBITALS
  NO   OCC          E(Eh)            E(eV)
   0   1.0000    -261.539033     -7116.8389
   1   1.0000    -104.767995     -2850.8821
   2   1.0000    -104.766256     -2850.8348
   3   1.0000    -104.764921     -2850.7984
   4   1.0000     -32.048415      -872.0817
   5   1.0000     -27.526460      -749.0331
   6   1.0000     -27.526330      -749.0295
   7   1.0000     -27.525882      -749.0173
   8   1.0000     -20.540407      -558.9329
   9   1.0000     -11.385815      -309.8238
  10   1.0000     -11.363773      -309.2240
  11   1.0000     -11.301765      -307.5367
  12   1.0000     -11.287737      -307.1549
  13   1.0000     -11.275402      -306.8193
  14   1.0000     -11.252962      -306.2087
  15   1.0000     -11.249241      -306.1074
  16   1.0000     -11.239726      -305.8485
  17   1.0000     -10.494520      -285.5704
  18   1.0000     -10.492745      -285.5221
  19   1.0000     -10.491439      -285.4866
  20   1.0000      -7.960415      -216.6139
  21   1.0000      -7.959847      -216.5984
  22   1.0000      -7.959775      -216.5965
  23   1.0000      -7.958715      -216.5676
  24   1.0000      -7.958048      -216.5495
  25   1.0000      -7.957942      -216.5466
  26   1.0000      -7.957370      -216.5310
  27   1.0000      -7.956716      -216.5133
  28   1.0000      -7.956633      -216.5110
  29   1.0000      -4.123616      -112.2093
  30   1.0000      -2.645449       -71.9863
  31   1.0000      -2.645392       -71.9848
  32   1.0000      -2.644522       -71.9611
  33   1.0000      -1.367398       -37.2088
  34   1.0000      -1.195022       -32.5182
  35   1.0000      -1.080370       -29.3984
  36   1.0000      -1.045686       -28.4546
  37   1.0000      -1.026093       -27.9214
  38   1.0000      -1.017268       -27.6813
  39   1.0000      -1.014557       -27.6075
  40   1.0000      -1.012910       -27.5627
  41   1.0000      -0.972139       -26.4532
  42   1.0000      -0.930598       -25.3229
  43   1.0000      -0.802755       -21.8441
  44   1.0000      -0.775554       -21.1039
  45   1.0000      -0.709073       -19.2949
  46   1.0000      -0.694270       -18.8920
  47   1.0000      -0.672531       -18.3005
  48   1.0000      -0.657749       -17.8983
  49   1.0000      -0.649404       -17.6712
  50   1.0000      -0.634225       -17.2581
  51   1.0000      -0.606109       -16.4931
  52   1.0000      -0.601553       -16.3691
  53   1.0000      -0.589913       -16.0523
  54   1.0000      -0.583066       -15.8660
  55   1.0000      -0.574947       -15.6451
  56   1.0000      -0.562652       -15.3105
  57   1.0000      -0.556683       -15.1481
  58   1.0000      -0.537890       -14.6367
  59   1.0000      -0.535147       -14.5621
  60   1.0000      -0.514484       -13.9998
  61   1.0000      -0.496921       -13.5219
  62   1.0000      -0.464549       -12.6410
  63   1.0000      -0.459928       -12.5153
  64   1.0000      -0.450911       -12.2699
  65   1.0000      -0.430961       -11.7270
  66   1.0000      -0.429196       -11.6790
  67   1.0000      -0.426392       -11.6027
  68   1.0000      -0.425345       -11.5742
  69   1.0000      -0.405520       -11.0348
  70   1.0000      -0.394191       -10.7265
  71   1.0000      -0.392336       -10.6760
  72   0.0000       0.002167         0.0590
  73   0.0000       0.002451         0.0667
  74   0.0000       0.017470         0.4754
  75   0.0000       0.018370         0.4999
  76   0.0000       0.027416         0.7460

E(0)                                       ...  -3028.426583158
E(0)                                       ...  -3028.426583158
E(CORR)(strong-pairs)                      ...     -2.874232286
E(CORR)(weak-pairs)                        ...     -0.035590606
E(CORR)(corrected)                         ...     -2.909822892
E(TOT)                                     ...  -3031.336406050
E(CCSD(T))                                 ...  -3031.456212564
FINAL SINGLE POINT ENERGY     -3031.456212564252

DIPOLE MOMENT
-------------
                                X             Y             Z
Electronic contribution:     42.75705       6.65406      -1.40210
Nuclear contribution   :    -48.54028      -6.88501       1.35337
                        -----------------------------------------
Total Dipole Moment    :     -5.78323      -0.23095      -0.04873
                        -----------------------------------------
Magnitude (a.u.)       :      5.78804
Magnitude (Debye)      :     14.71203

Rotational constants in cm-1:     0.020041     0.010222     0.009775
Rotational constants in MHz :   600.820207   306.460343   293.042072

                             ****ORCA TERMINATED NORMALLY****
TOTAL RUN TIME: 0 days 20 hours 13 minutes 32 seconds 981 msec
