                         Program Version 4.1.2  - RELEASE  -
|  1> ! aug-cc-pVTZ aug-cc-pVTZ/C DLPNO-CCSD(T1) TightSCF NormalPNO UNO MiniPrint AutoAux
|  2> %pal nproc 10 end
|  3> %maxcore 20000
|  4> %mdci
|  5>      density none
|  6> end
|  7>
|  8> * xyz 0 6
|  9>  O      0.26176400      0.29585600     -0.79186500
| 10>  C      1.03040900      1.27494900     -0.63741800
| 11>  C      3.20283800     -0.00316100      0.33055800
| 12>  C      2.50108900     -1.00680500     -0.23415000
| 13>  C      2.68127500     -1.37412100     -1.68126600
| 14> Fe     -1.47076000     -0.12992800      0.04657600
| 15> Cl     -2.10535900     -1.96934300     -0.92585900
| 16>  C      1.59296200     -1.92914200      0.52639300
| 17> Cl     -2.60010700      1.67035200     -0.48730700
| 18> Cl     -1.19332400     -0.29399600      2.21638500
| 19>  H      3.90270400      0.53770900     -0.30676200
| 20>  H      2.11221000     -2.88192900      0.70005100
| 21>  H      1.27803900     -1.54067200      1.49486500
| 22>  H      0.69923200     -2.17107200     -0.05858000
| 23>  H      3.02188100     -2.41475700     -1.75978600
| 24>  H      1.72527000     -1.32009800     -2.21700300
| 25>  H      3.41698300     -0.74186400     -2.18683700
| 26>  C      3.27491000      0.33502100      1.79435000
| 27>  H      4.16212500     -0.12889400      2.24683900
| 28>  H      3.37218000      1.41425700      1.95538600
| 29>  H      2.40439500     -0.01371200      2.35594900
| 30>  C      0.93638600      2.14261500      0.57699500
| 31>  H      1.82650600      2.75765000      0.71256500
| 32>  H      0.07506100      2.80754400      0.41187800
| 33>  H      0.72668100      1.55799800      1.47331800
| 34>  C      1.77065400      1.79205100     -1.83228900
| 35>  H      1.12437600      2.56634600     -2.27256000
| 36>  H      2.71686300      2.26210600     -1.56065400
| 37>  H      1.91742900      1.01301500     -2.57848100
| 38> *
| 39>
| 40>
| 41>                          ****END OF INPUT****

CARTESIAN COORDINATES (ANGSTROEM)
---------------------------------
  O      0.261764    0.295856   -0.791865
  C      1.030409    1.274949   -0.637418
  C      3.202838   -0.003161    0.330558
  C      2.501089   -1.006805   -0.234150
  C      2.681275   -1.374121   -1.681266
  Fe    -1.470760   -0.129928    0.046576
  Cl    -2.105359   -1.969343   -0.925859
  C      1.592962   -1.929142    0.526393
  Cl    -2.600107    1.670352   -0.487307
  Cl    -1.193324   -0.293996    2.216385
  H      3.902704    0.537709   -0.306762
  H      2.112210   -2.881929    0.700051
  H      1.278039   -1.540672    1.494865
  H      0.699232   -2.171072   -0.058580
  H      3.021881   -2.414757   -1.759786
  H      1.725270   -1.320098   -2.217003
  H      3.416983   -0.741864   -2.186837
  C      3.274910    0.335021    1.794350
  H      4.162125   -0.128894    2.246839
  H      3.372180    1.414257    1.955386
  H      2.404395   -0.013712    2.355949
  C      0.936386    2.142615    0.576995
  H      1.826506    2.757650    0.712565
  H      0.075061    2.807544    0.411878
  H      0.726681    1.557998    1.473318
  C      1.770654    1.792051   -1.832289
  H      1.124376    2.566346   -2.272560
  H      2.716863    2.262106   -1.560654
  H      1.917429    1.013015   -2.578481

ORBITAL ENERGIES
----------------
                 SPIN UP ORBITALS
  NO   OCC          E(Eh)            E(eV)
   0   1.0000    -261.576976     -7117.8714
   1   1.0000    -104.793898     -2851.5869
   2   1.0000    -104.791412     -2851.5193
   3   1.0000    -104.789920     -2851.4787
   4   1.0000     -32.244644      -877.4214
   5   1.0000     -27.721146      -754.3307
   6   1.0000     -27.719974      -754.2989
   7   1.0000     -27.719801      -754.2941
   8   1.0000     -20.618951      -561.0702
   9   1.0000     -11.422754      -310.8289
  10   1.0000     -11.278348      -306.8995
  11   1.0000     -11.272625      -306.7437
  12   1.0000     -11.265779      -306.5574
  13   1.0000     -11.241958      -305.9092
  14   1.0000     -11.239744      -305.8490
  15   1.0000     -11.239480      -305.8418
  16   1.0000     -11.229233      -305.5630
  17   1.0000     -10.520613      -286.2804
  18   1.0000     -10.518096      -286.2119
  19   1.0000     -10.516548      -286.1698
  20   1.0000      -7.987441      -217.3493
  21   1.0000      -7.986699      -217.3291
  22   1.0000      -7.986643      -217.3276
  23   1.0000      -7.984994      -217.2827
  24   1.0000      -7.984186      -217.2608
  25   1.0000      -7.984120      -217.2589
  26   1.0000      -7.983331      -217.2375
  27   1.0000      -7.982673      -217.2196
  28   1.0000      -7.982628      -217.2184
  29   1.0000      -4.599477      -125.1581
  30   1.0000      -3.212633       -87.4202
  31   1.0000      -3.210850       -87.3717
  32   1.0000      -3.210729       -87.3684
  33   1.0000      -1.466276       -39.8994
  34   1.0000      -1.125137       -30.6165
  35   1.0000      -1.102464       -29.9996
  36   1.0000      -1.067371       -29.0447
  37   1.0000      -1.061749       -28.8917
  38   1.0000      -1.059353       -28.8265
  39   1.0000      -1.021630       -27.8000
  40   1.0000      -1.010889       -27.5077
  41   1.0000      -0.957682       -26.0599
  42   1.0000      -0.943479       -25.6734
  43   1.0000      -0.928401       -25.2631
  44   1.0000      -0.928270       -25.2595
  45   1.0000      -0.917363       -24.9627
  46   1.0000      -0.916983       -24.9524
  47   1.0000      -0.896042       -24.3825
  48   1.0000      -0.814511       -22.1640
  49   1.0000      -0.728271       -19.8173
  50   1.0000      -0.713351       -19.4113
  51   1.0000      -0.704340       -19.1661
  52   1.0000      -0.687887       -18.7184
  53   1.0000      -0.654150       -17.8003
  54   1.0000      -0.622111       -16.9285
  55   1.0000      -0.620626       -16.8881
  56   1.0000      -0.603048       -16.4098
  57   1.0000      -0.600452       -16.3391
  58   1.0000      -0.586047       -15.9471
  59   1.0000      -0.579942       -15.7810
  60   1.0000      -0.560265       -15.2456
  61   1.0000      -0.552633       -15.0379
  62   1.0000      -0.550894       -14.9906
  63   1.0000      -0.538430       -14.6514
  64   1.0000      -0.534759       -14.5515
  65   1.0000      -0.525782       -14.3073
  66   1.0000      -0.503861       -13.7108
  67   1.0000      -0.492270       -13.3953
  68   1.0000      -0.477825       -13.0023
  69   1.0000      -0.476560       -12.9679
  70   1.0000      -0.447427       -12.1751
  71   1.0000      -0.441082       -12.0024
  72   1.0000      -0.439546       -11.9606
  73   1.0000      -0.430947       -11.7267
  74   1.0000      -0.429568       -11.6891
  75   1.0000      -0.428909       -11.6712
  76   1.0000      -0.357785        -9.7358
  77   0.0000       0.012901         0.3511
  78   0.0000       0.023798         0.6476
  79   0.0000       0.024563         0.6684
  80   0.0000       0.030649         0.8340
  81   0.0000       0.039518         1.0753

                 SPIN DOWN ORBITALS
  NO   OCC          E(Eh)            E(eV)
   0   1.0000    -261.573397     -7117.7740
   1   1.0000    -104.792398     -2851.5461
   2   1.0000    -104.789864     -2851.4772
   3   1.0000    -104.788362     -2851.4363
   4   1.0000     -32.082669      -873.0138
   5   1.0000     -27.560612      -749.9624
   6   1.0000     -27.560502      -749.9594
   7   1.0000     -27.560398      -749.9566
   8   1.0000     -20.615549      -560.9776
   9   1.0000     -11.422640      -310.8258
  10   1.0000     -11.278246      -306.8967
  11   1.0000     -11.272623      -306.7437
  12   1.0000     -11.265850      -306.5594
  13   1.0000     -11.241845      -305.9061
  14   1.0000     -11.239754      -305.8493
  15   1.0000     -11.239468      -305.8415
  16   1.0000     -11.229239      -305.5631
  17   1.0000     -10.519011      -286.2368
  18   1.0000     -10.516442      -286.1669
  19   1.0000     -10.514894      -286.1248
  20   1.0000      -7.984936      -217.2811
  21   1.0000      -7.984182      -217.2606
  22   1.0000      -7.984137      -217.2594
  23   1.0000      -7.982301      -217.2095
  24   1.0000      -7.981658      -217.1919
  25   1.0000      -7.981558      -217.1892
  26   1.0000      -7.980889      -217.1710
  27   1.0000      -7.979985      -217.1464
  28   1.0000      -7.979906      -217.1443
  29   1.0000      -4.157406      -113.1288
  30   1.0000      -2.678956       -72.8981
  31   1.0000      -2.678892       -72.8963
  32   1.0000      -2.678493       -72.8855
  33   1.0000      -1.457883       -39.6710
  34   1.0000      -1.124833       -30.6083
  35   1.0000      -1.100202       -29.9380
  36   1.0000      -1.051735       -28.6192
  37   1.0000      -1.039178       -28.2775
  38   1.0000      -1.036700       -28.2100
  39   1.0000      -1.020889       -27.7798
  40   1.0000      -1.010434       -27.4953
  41   1.0000      -0.957488       -26.0546
  42   1.0000      -0.896188       -24.3865
  43   1.0000      -0.826894       -22.5009
  44   1.0000      -0.728335       -19.8190
  45   1.0000      -0.715326       -19.4650
  46   1.0000      -0.703531       -19.1441
  47   1.0000      -0.687241       -18.7008
  48   1.0000      -0.654101       -17.7990
  49   1.0000      -0.621529       -16.9127
  50   1.0000      -0.620594       -16.8872
  51   1.0000      -0.602846       -16.4043
  52   1.0000      -0.600415       -16.3381
  53   1.0000      -0.585777       -15.9398
  54   1.0000      -0.579051       -15.7568
  55   1.0000      -0.559138       -15.2149
  56   1.0000      -0.551989       -15.0204
  57   1.0000      -0.549276       -14.9466
  58   1.0000      -0.538413       -14.6510
  59   1.0000      -0.527299       -14.3485
  60   1.0000      -0.522420       -14.2158
  61   1.0000      -0.505083       -13.7440
  62   1.0000      -0.492007       -13.3882
  63   1.0000      -0.485760       -13.2182
  64   1.0000      -0.483774       -13.1642
  65   1.0000      -0.454455       -12.3663
  66   1.0000      -0.451443       -12.2844
  67   1.0000      -0.448541       -12.2054
  68   1.0000      -0.432058       -11.7569
  69   1.0000      -0.430203       -11.7064
  70   1.0000      -0.413975       -11.2648
  71   1.0000      -0.357177        -9.7193
  72   0.0000       0.012886         0.3506
  73   0.0000       0.023774         0.6469
  74   0.0000       0.024528         0.6674
  75   0.0000       0.030597         0.8326
  76   0.0000       0.039413         1.0725

E(0)                                       ...  -3028.462291427
E(0)                                       ...  -3028.462291427
E(CORR)(strong-pairs)                      ...     -2.867744762
E(CORR)(weak-pairs)                        ...     -0.035754515
E(CORR)(corrected)                         ...     -2.903499277
E(TOT)                                     ...  -3031.365790704
E(CCSD(T))                                 ...  -3031.483779014
FINAL SINGLE POINT ENERGY     -3031.483779013669

DIPOLE MOMENT
-------------
                                X             Y             Z
Electronic contribution:    -43.49551      -3.52959       2.19367
Nuclear contribution   :     46.78162       4.86945      -2.82278
                        -----------------------------------------
Total Dipole Moment    :      3.28611       1.33986      -0.62912
                        -----------------------------------------
Magnitude (a.u.)       :      3.60410
Magnitude (Debye)      :      9.16090

Rotational constants in cm-1:     0.018930     0.010800     0.010180
Rotational constants in MHz :   567.521126   323.772617   305.184310

                             ****ORCA TERMINATED NORMALLY****
TOTAL RUN TIME: 0 days 17 hours 55 minutes 34 seconds 444 msec
