                         Program Version 4.1.2  - RELEASE  -
|  1> ! aug-cc-pVTZ aug-cc-pVTZ/C DLPNO-CCSD(T1) TightSCF NormalPNO UNO MiniPrint AutoAux
|  2> %pal nproc 10 end
|  3> %maxcore 20000
|  4> %mdci
|  5>      density none
|  6> end
|  7>
|  8> * xyz 0 6
|  9>  O     -0.31741800     -0.15785200     -0.65208800
| 10>  C     -1.14653100     -1.11303100     -0.56931800
| 11>  C     -3.20519400      0.03662300      0.09603600
| 12>  C     -2.35011700      1.04097200     -0.21507400
| 13>  C     -2.29564100      1.62151200     -1.59763200
| 14> Fe      1.46842800      0.08364800      0.05759900
| 15> Cl      2.09981700      1.98534400     -0.80775700
| 16>  C     -1.55308900      1.78759400      0.81449500
| 17> Cl      2.46346000     -1.72115800     -0.69948800
| 18> Cl      1.36112100      0.08866000      2.25268800
| 19>  H     -3.82581500     -0.35556500     -0.70807300
| 20>  H     -2.16408500      2.62139000      1.18783800
| 21>  H     -1.26652000      1.18006700      1.67389000
| 22>  H     -0.64965200      2.22288900      0.37958300
| 23>  H     -2.59672600      2.67624700     -1.54774700
| 24>  H     -1.27288400      1.60427100     -1.98862100
| 25>  H     -2.96830200      1.11552300     -2.29538500
| 26>  C     -3.59252000     -0.40729700      1.47982500
| 27>  H     -4.51458300      0.10530200      1.78648000
| 28>  H     -3.80360100     -1.48104700      1.52043100
| 29>  H     -2.83205500     -0.18009700      2.23076400
| 30>  C     -1.10689800     -2.02692800      0.61681600
| 31>  H     -2.00020200     -2.64598800      0.69900600
| 32>  H     -0.24289400     -2.68808300      0.44912700
| 33>  H     -0.91941400     -1.48254600      1.54263200
| 34>  C     -1.72193100     -1.64271600     -1.85056500
| 35>  H     -0.95161800     -2.31456900     -2.25792600
| 36>  H     -2.63385300     -2.22083400     -1.69454700
| 37>  H     -1.88082500     -0.84775300     -2.57834300
| 38> *
| 39>
| 40>
| 41>                          ****END OF INPUT****

CARTESIAN COORDINATES (ANGSTROEM)
---------------------------------
  O     -0.317418   -0.157852   -0.652088
  C     -1.146531   -1.113031   -0.569318
  C     -3.205194    0.036623    0.096036
  C     -2.350117    1.040972   -0.215074
  C     -2.295641    1.621512   -1.597632
  Fe     1.468428    0.083648    0.057599
  Cl     2.099817    1.985344   -0.807757
  C     -1.553089    1.787594    0.814495
  Cl     2.463460   -1.721158   -0.699488
  Cl     1.361121    0.088660    2.252688
  H     -3.825815   -0.355565   -0.708073
  H     -2.164085    2.621390    1.187838
  H     -1.266520    1.180067    1.673890
  H     -0.649652    2.222889    0.379583
  H     -2.596726    2.676247   -1.547747
  H     -1.272884    1.604271   -1.988621
  H     -2.968302    1.115523   -2.295385
  C     -3.592520   -0.407297    1.479825
  H     -4.514583    0.105302    1.786480
  H     -3.803601   -1.481047    1.520431
  H     -2.832055   -0.180097    2.230764
  C     -1.106898   -2.026928    0.616816
  H     -2.000202   -2.645988    0.699006
  H     -0.242894   -2.688083    0.449127
  H     -0.919414   -1.482546    1.542632
  C     -1.721931   -1.642716   -1.850565
  H     -0.951618   -2.314569   -2.257926
  H     -2.633853   -2.220834   -1.694547
  H     -1.880825   -0.847753   -2.578343

ORBITAL ENERGIES
----------------
                 SPIN UP ORBITALS
  NO   OCC          E(Eh)            E(eV)
   0   1.0000    -261.571034     -7117.7097
   1   1.0000    -104.789448     -2851.4659
   2   1.0000    -104.788073     -2851.4284
   3   1.0000    -104.786796     -2851.3937
   4   1.0000     -32.238778      -877.2617
   5   1.0000     -27.715169      -754.1681
   6   1.0000     -27.714166      -754.1408
   7   1.0000     -27.714030      -754.1371
   8   1.0000     -20.600126      -560.5579
   9   1.0000     -11.422105      -310.8113
  10   1.0000     -11.284821      -307.0756
  11   1.0000     -11.275129      -306.8119
  12   1.0000     -11.270292      -306.6802
  13   1.0000     -11.249420      -306.1123
  14   1.0000     -11.246849      -306.0423
  15   1.0000     -11.243510      -305.9514
  16   1.0000     -11.237527      -305.7887
  17   1.0000     -10.516125      -286.1583
  18   1.0000     -10.514700      -286.1195
  19   1.0000     -10.513388      -286.0838
  20   1.0000      -7.982973      -217.2277
  21   1.0000      -7.982200      -217.2067
  22   1.0000      -7.982156      -217.2055
  23   1.0000      -7.981585      -217.1900
  24   1.0000      -7.980795      -217.1685
  25   1.0000      -7.980710      -217.1662
  26   1.0000      -7.980178      -217.1517
  27   1.0000      -7.979511      -217.1335
  28   1.0000      -7.979450      -217.1319
  29   1.0000      -4.593848      -125.0050
  30   1.0000      -3.206982       -87.2664
  31   1.0000      -3.205360       -87.2223
  32   1.0000      -3.205143       -87.2164
  33   1.0000      -1.454056       -39.5669
  34   1.0000      -1.137258       -30.9464
  35   1.0000      -1.099438       -29.9172
  36   1.0000      -1.062700       -28.9176
  37   1.0000      -1.057297       -28.7705
  38   1.0000      -1.055254       -28.7149
  39   1.0000      -1.025427       -27.9033
  40   1.0000      -1.010604       -27.4999
  41   1.0000      -0.966114       -26.2893
  42   1.0000      -0.939439       -25.5634
  43   1.0000      -0.923086       -25.1185
  44   1.0000      -0.922923       -25.1140
  45   1.0000      -0.912376       -24.8270
  46   1.0000      -0.912181       -24.8217
  47   1.0000      -0.904730       -24.6189
  48   1.0000      -0.807795       -21.9812
  49   1.0000      -0.737359       -20.0646
  50   1.0000      -0.706354       -19.2209
  51   1.0000      -0.700017       -19.0484
  52   1.0000      -0.691682       -18.8216
  53   1.0000      -0.660907       -17.9842
  54   1.0000      -0.628488       -17.1020
  55   1.0000      -0.620747       -16.8914
  56   1.0000      -0.602760       -16.4019
  57   1.0000      -0.600740       -16.3470
  58   1.0000      -0.584305       -15.8998
  59   1.0000      -0.579020       -15.7559
  60   1.0000      -0.562419       -15.3042
  61   1.0000      -0.560645       -15.2559
  62   1.0000      -0.552714       -15.0401
  63   1.0000      -0.542790       -14.7701
  64   1.0000      -0.534179       -14.5358
  65   1.0000      -0.526605       -14.3297
  66   1.0000      -0.502218       -13.6660
  67   1.0000      -0.497134       -13.5277
  68   1.0000      -0.475351       -12.9350
  69   1.0000      -0.470456       -12.8018
  70   1.0000      -0.443762       -12.0754
  71   1.0000      -0.437639       -11.9088
  72   1.0000      -0.436189       -11.8693
  73   1.0000      -0.427782       -11.6405
  74   1.0000      -0.426043       -11.5932
  75   1.0000      -0.425852       -11.5880
  76   1.0000      -0.361739        -9.8434
  77   0.0000       0.012623         0.3435
  78   0.0000       0.023643         0.6434
  79   0.0000       0.023759         0.6465
  80   0.0000       0.030388         0.8269
  81   0.0000       0.039583         1.0771

                 SPIN DOWN ORBITALS
  NO   OCC          E(Eh)            E(eV)
   0   1.0000    -261.567470     -7117.6127
   1   1.0000    -104.787967     -2851.4255
   2   1.0000    -104.786564     -2851.3874
   3   1.0000    -104.785288     -2851.3526
   4   1.0000     -32.076782      -872.8536
   5   1.0000     -27.554703      -749.8016
   6   1.0000     -27.554653      -749.8002
   7   1.0000     -27.554458      -749.7949
   8   1.0000     -20.596368      -560.4557
   9   1.0000     -11.421923      -310.8063
  10   1.0000     -11.284947      -307.0790
  11   1.0000     -11.275033      -306.8092
  12   1.0000     -11.270285      -306.6800
  13   1.0000     -11.249163      -306.1053
  14   1.0000     -11.246873      -306.0430
  15   1.0000     -11.243487      -305.9508
  16   1.0000     -11.237532      -305.7888
  17   1.0000     -10.514541      -286.1152
  18   1.0000     -10.513087      -286.0756
  19   1.0000     -10.511783      -286.0402
  20   1.0000      -7.980452      -217.1591
  21   1.0000      -7.979751      -217.1401
  22   1.0000      -7.979691      -217.1384
  23   1.0000      -7.978961      -217.1186
  24   1.0000      -7.978329      -217.1014
  25   1.0000      -7.978226      -217.0986
  26   1.0000      -7.977773      -217.0862
  27   1.0000      -7.976928      -217.0633
  28   1.0000      -7.976844      -217.0610
  29   1.0000      -4.151673      -112.9728
  30   1.0000      -2.673251       -72.7428
  31   1.0000      -2.673183       -72.7410
  32   1.0000      -2.672840       -72.7317
  33   1.0000      -1.444562       -39.3085
  34   1.0000      -1.136797       -30.9338
  35   1.0000      -1.096974       -29.8502
  36   1.0000      -1.047358       -28.5000
  37   1.0000      -1.035081       -28.1660
  38   1.0000      -1.033425       -28.1209
  39   1.0000      -1.024939       -27.8900
  40   1.0000      -1.009848       -27.4794
  41   1.0000      -0.965975       -26.2855
  42   1.0000      -0.905265       -24.6335
  43   1.0000      -0.821372       -22.3507
  44   1.0000      -0.737418       -20.0662
  45   1.0000      -0.709232       -19.2992
  46   1.0000      -0.699438       -19.0327
  47   1.0000      -0.690390       -18.7865
  48   1.0000      -0.660888       -17.9837
  49   1.0000      -0.628379       -17.0991
  50   1.0000      -0.620385       -16.8815
  51   1.0000      -0.602561       -16.3965
  52   1.0000      -0.600669       -16.3450
  53   1.0000      -0.583884       -15.8883
  54   1.0000      -0.578409       -15.7393
  55   1.0000      -0.562117       -15.2960
  56   1.0000      -0.560484       -15.2515
  57   1.0000      -0.549881       -14.9630
  58   1.0000      -0.542680       -14.7671
  59   1.0000      -0.533378       -14.5139
  60   1.0000      -0.517922       -14.0934
  61   1.0000      -0.502232       -13.6664
  62   1.0000      -0.496515       -13.5109
  63   1.0000      -0.480833       -13.0841
  64   1.0000      -0.479943       -13.0599
  65   1.0000      -0.450778       -12.2663
  66   1.0000      -0.447688       -12.1822
  67   1.0000      -0.445236       -12.1155
  68   1.0000      -0.429891       -11.6979
  69   1.0000      -0.426359       -11.6018
  70   1.0000      -0.411056       -11.1854
  71   1.0000      -0.360662        -9.8141
  72   0.0000       0.012613         0.3432
  73   0.0000       0.023613         0.6425
  74   0.0000       0.023730         0.6457
  75   0.0000       0.030373         0.8265
  76   0.0000       0.039528         1.0756

E(0)                                       ...  -3028.442401917
E(0)                                       ...  -3028.442401917
E(CORR)(strong-pairs)                      ...     -2.870468651
E(CORR)(weak-pairs)                        ...     -0.036524782
E(CORR)(corrected)                         ...     -2.906993434
E(TOT)                                     ...  -3031.349395350
E(CCSD(T))                                 ...  -3031.468121119
FINAL SINGLE POINT ENERGY     -3031.468121118609

DIPOLE MOMENT
-------------
                                X             Y             Z
Electronic contribution:     43.22401       2.42793       2.21630
Nuclear contribution   :    -46.84877      -3.38982      -2.79233
                        -----------------------------------------
Total Dipole Moment    :     -3.62475      -0.96189      -0.57603
                        -----------------------------------------
Magnitude (a.u.)       :      3.79419
Magnitude (Debye)      :      9.64407

Rotational constants in cm-1:     0.019391     0.010944     0.010313
Rotational constants in MHz :   581.326324   328.105046   309.181111

                             ****ORCA TERMINATED NORMALLY****
TOTAL RUN TIME: 0 days 18 hours 46 minutes 25 seconds 85 msec
