                         Program Version 4.1.2  - RELEASE  -
|  1> ! aug-cc-pVTZ aug-cc-pVTZ/C DLPNO-CCSD(T1) TightSCF NormalPNO UNO MiniPrint AutoAux
|  2> %pal nproc 10 end
|  3> %maxcore 20000
|  4> %mdci
|  5>      density none
|  6> end
|  7>
|  8> * xyz 0 6
|  9>  O     -0.38653400     -0.18697100     -0.52716800
| 10>  C     -1.37454200     -1.20232300     -0.39338300
| 11>  C     -2.84998600     -0.11033100     -0.16290500
| 12>  C     -2.01832200      1.11070000     -0.27562800
| 13>  C     -1.90297000      1.80138100     -1.58281000
| 14> Fe      1.38148700      0.04809100      0.04014800
| 15> Cl      1.82641800      2.03826900     -0.82659000
| 16>  C     -1.57485100      1.85008700      0.92986500
| 17> Cl      2.51777100     -1.66996100     -0.71911800
| 18> Cl      1.33044700      0.13938700      2.25600600
| 19>  H     -3.46165900     -0.25226700     -1.05574900
| 20>  H     -2.43092100      2.46726900      1.24937800
| 21>  H     -1.31460800      1.19079900      1.75860600
| 22>  H     -0.73449200      2.51114500      0.70951400
| 23>  H     -2.66487700      2.59868900     -1.58673400
| 24>  H     -0.92134500      2.26991600     -1.69259600
| 25>  H     -2.10543900      1.13496100     -2.42249700
| 26>  C     -3.63281600     -0.34845400      1.11453500
| 27>  H     -4.43952200      0.38619100      1.22891600
| 28>  H     -4.09525600     -1.33936700      1.08408700
| 29>  H     -3.00642600     -0.30175600      2.00822500
| 30>  C     -1.15972500     -2.07881300      0.81550500
| 31>  H     -1.98036900     -2.79101900      0.94305400
| 32>  H     -0.23389700     -2.64809900      0.66050100
| 33>  H     -1.03253100     -1.49412100      1.72810300
| 34>  C     -1.52675600     -1.96319600     -1.68981100
| 35>  H     -0.58477100     -2.48919500     -1.88933300
| 36>  H     -2.33654400     -2.69763400     -1.63014100
| 37>  H     -1.71274900     -1.28520200     -2.52712500
| 38> *
| 39>
| 40>
| 41>                          ****END OF INPUT****

CARTESIAN COORDINATES (ANGSTROEM)
---------------------------------
  O     -0.386534   -0.186971   -0.527168
  C     -1.374542   -1.202323   -0.393383
  C     -2.849986   -0.110331   -0.162905
  C     -2.018322    1.110700   -0.275628
  C     -1.902970    1.801381   -1.582810
  Fe     1.381487    0.048091    0.040148
  Cl     1.826418    2.038269   -0.826590
  C     -1.574851    1.850087    0.929865
  Cl     2.517771   -1.669961   -0.719118
  Cl     1.330447    0.139387    2.256006
  H     -3.461659   -0.252267   -1.055749
  H     -2.430921    2.467269    1.249378
  H     -1.314608    1.190799    1.758606
  H     -0.734492    2.511145    0.709514
  H     -2.664877    2.598689   -1.586734
  H     -0.921345    2.269916   -1.692596
  H     -2.105439    1.134961   -2.422497
  C     -3.632816   -0.348454    1.114535
  H     -4.439522    0.386191    1.228916
  H     -4.095256   -1.339367    1.084087
  H     -3.006426   -0.301756    2.008225
  C     -1.159725   -2.078813    0.815505
  H     -1.980369   -2.791019    0.943054
  H     -0.233897   -2.648099    0.660501
  H     -1.032531   -1.494121    1.728103
  C     -1.526756   -1.963196   -1.689811
  H     -0.584771   -2.489195   -1.889333
  H     -2.336544   -2.697634   -1.630141
  H     -1.712749   -1.285202   -2.527125

ORBITAL ENERGIES
----------------
                 SPIN UP ORBITALS
  NO   OCC          E(Eh)            E(eV)
   0   1.0000    -261.548866     -7117.1065
   1   1.0000    -104.776882     -2851.1239
   2   1.0000    -104.775149     -2851.0767
   3   1.0000    -104.773540     -2851.0330
   4   1.0000     -32.216775      -876.6630
   5   1.0000     -27.692660      -753.5556
   6   1.0000     -27.692521      -753.5518
   7   1.0000     -27.692209      -753.5433
   8   1.0000     -20.555364      -559.3399
   9   1.0000     -11.401580      -310.2528
  10   1.0000     -11.355985      -309.0121
  11   1.0000     -11.288923      -307.1872
  12   1.0000     -11.278143      -306.8939
  13   1.0000     -11.275019      -306.8089
  14   1.0000     -11.261706      -306.4466
  15   1.0000     -11.242134      -305.9140
  16   1.0000     -11.238611      -305.8181
  17   1.0000     -10.503432      -285.8129
  18   1.0000     -10.501779      -285.7679
  19   1.0000     -10.500126      -285.7230
  20   1.0000      -7.970258      -216.8817
  21   1.0000      -7.969513      -216.8615
  22   1.0000      -7.969437      -216.8594
  23   1.0000      -7.968669      -216.8385
  24   1.0000      -7.967822      -216.8155
  25   1.0000      -7.967779      -216.8143
  26   1.0000      -7.966926      -216.7911
  27   1.0000      -7.966241      -216.7724
  28   1.0000      -7.966166      -216.7704
  29   1.0000      -4.572203      -124.4160
  30   1.0000      -3.184646       -86.6586
  31   1.0000      -3.184404       -86.6520
  32   1.0000      -3.183778       -86.6350
  33   1.0000      -1.361930       -37.0600
  34   1.0000      -1.171848       -31.8876
  35   1.0000      -1.084218       -29.5031
  36   1.0000      -1.048003       -28.5176
  37   1.0000      -1.042302       -28.3625
  38   1.0000      -1.040622       -28.3168
  39   1.0000      -1.039878       -28.2965
  40   1.0000      -1.011626       -27.5277
  41   1.0000      -0.970075       -26.3971
  42   1.0000      -0.929099       -25.2821
  43   1.0000      -0.905632       -24.6435
  44   1.0000      -0.901732       -24.5374
  45   1.0000      -0.901332       -24.5265
  46   1.0000      -0.893410       -24.3109
  47   1.0000      -0.892916       -24.2975
  48   1.0000      -0.789039       -21.4709
  49   1.0000      -0.760082       -20.6829
  50   1.0000      -0.697142       -18.9702
  51   1.0000      -0.687187       -18.6993
  52   1.0000      -0.669833       -18.2271
  53   1.0000      -0.640808       -17.4373
  54   1.0000      -0.628974       -17.1152
  55   1.0000      -0.627497       -17.0751
  56   1.0000      -0.597913       -16.2700
  57   1.0000      -0.597256       -16.2522
  58   1.0000      -0.592128       -16.1126
  59   1.0000      -0.580404       -15.7936
  60   1.0000      -0.574751       -15.6398
  61   1.0000      -0.559344       -15.2205
  62   1.0000      -0.549570       -14.9546
  63   1.0000      -0.539708       -14.6862
  64   1.0000      -0.533792       -14.5252
  65   1.0000      -0.524472       -14.2716
  66   1.0000      -0.506831       -13.7916
  67   1.0000      -0.478400       -13.0179
  68   1.0000      -0.463164       -12.6033
  69   1.0000      -0.451416       -12.2836
  70   1.0000      -0.431657       -11.7460
  71   1.0000      -0.426655       -11.6099
  72   1.0000      -0.423078       -11.5125
  73   1.0000      -0.416853       -11.3432
  74   1.0000      -0.414290       -11.2734
  75   1.0000      -0.412929       -11.2364
  76   1.0000      -0.398622       -10.8471
  77   0.0000       0.007737         0.2105
  78   0.0000       0.019793         0.5386
  79   0.0000       0.022133         0.6023
  80   0.0000       0.030740         0.8365
  81   0.0000       0.036033         0.9805

                 SPIN DOWN ORBITALS
  NO   OCC          E(Eh)            E(eV)
   0   1.0000    -261.545318     -7117.0099
   1   1.0000    -104.775564     -2851.0880
   2   1.0000    -104.773775     -2851.0394
   3   1.0000    -104.772097     -2850.9937
   4   1.0000     -32.054793      -872.2553
   5   1.0000     -27.532855      -749.2071
   6   1.0000     -27.532672      -749.2021
   7   1.0000     -27.532222      -749.1899
   8   1.0000     -20.549706      -559.1859
   9   1.0000     -11.401625      -310.2540
  10   1.0000     -11.355860      -309.0087
  11   1.0000     -11.288695      -307.1810
  12   1.0000     -11.278123      -306.8933
  13   1.0000     -11.275028      -306.8091
  14   1.0000     -11.261715      -306.4468
  15   1.0000     -11.242077      -305.9125
  16   1.0000     -11.238590      -305.8176
  17   1.0000     -10.502017      -285.7744
  18   1.0000     -10.500301      -285.7277
  19   1.0000     -10.498583      -285.6810
  20   1.0000      -7.967974      -216.8196
  21   1.0000      -7.967362      -216.8029
  22   1.0000      -7.967285      -216.8009
  23   1.0000      -7.966186      -216.7709
  24   1.0000      -7.965645      -216.7562
  25   1.0000      -7.965577      -216.7544
  26   1.0000      -7.964563      -216.7268
  27   1.0000      -7.963798      -216.7060
  28   1.0000      -7.963739      -216.7044
  29   1.0000      -4.130115      -112.3861
  30   1.0000      -2.651993       -72.1644
  31   1.0000      -2.651899       -72.1618
  32   1.0000      -2.651063       -72.1391
  33   1.0000      -1.347037       -36.6547
  34   1.0000      -1.170550       -31.8523
  35   1.0000      -1.081524       -29.4298
  36   1.0000      -1.038704       -28.2646
  37   1.0000      -1.033514       -28.1233
  38   1.0000      -1.022799       -27.8318
  39   1.0000      -1.020396       -27.7664
  40   1.0000      -1.011185       -27.5157
  41   1.0000      -0.969462       -26.3804
  42   1.0000      -0.924390       -25.1539
  43   1.0000      -0.793123       -21.5820
  44   1.0000      -0.764668       -20.8077
  45   1.0000      -0.697257       -18.9733
  46   1.0000      -0.686615       -18.6837
  47   1.0000      -0.670711       -18.2510
  48   1.0000      -0.642336       -17.4789
  49   1.0000      -0.628229       -17.0950
  50   1.0000      -0.626352       -17.0439
  51   1.0000      -0.597601       -16.2615
  52   1.0000      -0.596731       -16.2379
  53   1.0000      -0.592029       -16.1099
  54   1.0000      -0.578726       -15.7479
  55   1.0000      -0.574373       -15.6295
  56   1.0000      -0.559271       -15.2185
  57   1.0000      -0.547552       -14.8996
  58   1.0000      -0.539224       -14.6730
  59   1.0000      -0.532390       -14.4871
  60   1.0000      -0.518942       -14.1211
  61   1.0000      -0.503096       -13.6899
  62   1.0000      -0.474570       -12.9137
  63   1.0000      -0.466865       -12.7040
  64   1.0000      -0.461622       -12.5614
  65   1.0000      -0.437900       -11.9159
  66   1.0000      -0.434528       -11.8241
  67   1.0000      -0.433056       -11.7841
  68   1.0000      -0.425315       -11.5734
  69   1.0000      -0.412531       -11.2255
  70   1.0000      -0.400552       -10.8996
  71   1.0000      -0.395588       -10.7645
  72   0.0000       0.007710         0.2098
  73   0.0000       0.019662         0.5350
  74   0.0000       0.022114         0.6018
  75   0.0000       0.030782         0.8376
  76   0.0000       0.035244         0.9590

E(0)                                       ...  -3028.424422046
E(0)                                       ...  -3028.424422046
E(CORR)(strong-pairs)                      ...     -2.872154801
E(CORR)(weak-pairs)                        ...     -0.035610288
E(CORR)(corrected)                         ...     -2.907765090
E(TOT)                                     ...  -3031.332187135
E(CCSD(T))                                 ...  -3031.451083309
FINAL SINGLE POINT ENERGY     -3031.451083309103

DIPOLE MOMENT
-------------
                                X             Y             Z
Electronic contribution:     40.15213       3.91464       2.06501
Nuclear contribution   :    -44.77092      -3.51975      -2.51665
                        -----------------------------------------
Total Dipole Moment    :     -4.61879       0.39489      -0.45164
                        -----------------------------------------
Magnitude (a.u.)       :      4.65759
Magnitude (Debye)      :     11.83865

Rotational constants in cm-1:     0.018918     0.011914     0.010762
Rotational constants in MHz :   567.159386   357.184488   322.632870

                             ****ORCA TERMINATED NORMALLY****
TOTAL RUN TIME: 0 days 20 hours 21 minutes 54 seconds 517 msec
