                         Program Version 4.1.2  - RELEASE  -
|  1> ! aug-cc-pVTZ aug-cc-pVTZ/C DLPNO-CCSD(T1) TightSCF NormalPNO UNO MiniPrint AutoAux
|  2> %pal nproc 10 end
|  3> %maxcore 20000
|  4> %mdci
|  5>      density none
|  6> end
|  7>
|  8> * xyz 0 6
|  9>  O     -0.38272600     -0.14092900     -0.49828600
| 10>  C     -1.32925800     -1.15506600     -0.40919600
| 11>  C     -2.92975300     -0.07068300     -0.15419300
| 12>  C     -2.07075400      1.08701200     -0.26862100
| 13>  C     -1.90956900      1.76791000     -1.57938000
| 14> Fe      1.39685600      0.05174500      0.04684300
| 15> Cl      1.88048900      2.03105400     -0.81697500
| 16>  C     -1.58828600      1.81470500      0.93313900
| 17> Cl      2.46980500     -1.69876700     -0.74146700
| 18> Cl      1.36199200      0.11022700      2.26362400
| 19>  H     -3.51291200     -0.25893900     -1.05524700
| 20>  H     -2.41967700      2.45936300      1.26198400
| 21>  H     -1.34023300      1.14938100      1.76078200
| 22>  H     -0.72744000      2.44511600      0.70412700
| 23>  H     -2.63384600      2.59897300     -1.58813600
| 24>  H     -0.90678900      2.18823200     -1.68686600
| 25>  H     -2.14263500      1.11295800     -2.42045800
| 26>  C     -3.67516300     -0.36649600      1.12910800
| 27>  H     -4.51428700      0.32782900      1.26447100
| 28>  H     -4.09147500     -1.37763700      1.09698000
| 29>  H     -3.03950900     -0.29644300      2.01458000
| 30>  C     -1.17246100     -2.04728400      0.79251200
| 31>  H     -2.00123700     -2.75384700      0.88650900
| 32>  H     -0.24590800     -2.62074200      0.64917400
| 33>  H     -1.05666300     -1.47553300      1.71443300
| 34>  C     -1.51427400     -1.87406700     -1.72162100
| 35>  H     -0.57491400     -2.40071200     -1.93760800
| 36>  H     -2.32886000     -2.60278300     -1.67515000
| 37>  H     -1.69182300     -1.17207400     -2.53978400
| 38> *
| 39>
| 40>
| 41>                          ****END OF INPUT****

CARTESIAN COORDINATES (ANGSTROEM)
---------------------------------
  O     -0.382726   -0.140929   -0.498286
  C     -1.329258   -1.155066   -0.409196
  C     -2.929753   -0.070683   -0.154193
  C     -2.070754    1.087012   -0.268621
  C     -1.909569    1.767910   -1.579380
  Fe     1.396856    0.051745    0.046843
  Cl     1.880489    2.031054   -0.816975
  C     -1.588286    1.814705    0.933139
  Cl     2.469805   -1.698767   -0.741467
  Cl     1.361992    0.110227    2.263624
  H     -3.512912   -0.258939   -1.055247
  H     -2.419677    2.459363    1.261984
  H     -1.340233    1.149381    1.760782
  H     -0.727440    2.445116    0.704127
  H     -2.633846    2.598973   -1.588136
  H     -0.906789    2.188232   -1.686866
  H     -2.142635    1.112958   -2.420458
  C     -3.675163   -0.366496    1.129108
  H     -4.514287    0.327829    1.264471
  H     -4.091475   -1.377637    1.096980
  H     -3.039509   -0.296443    2.014580
  C     -1.172461   -2.047284    0.792512
  H     -2.001237   -2.753847    0.886509
  H     -0.245908   -2.620742    0.649174
  H     -1.056663   -1.475533    1.714433
  C     -1.514274   -1.874067   -1.721621
  H     -0.574914   -2.400712   -1.937608
  H     -2.328860   -2.602783   -1.675150
  H     -1.691823   -1.172074   -2.539784

ORBITAL ENERGIES
----------------
                 SPIN UP ORBITALS
  NO   OCC          E(Eh)            E(eV)
   0   1.0000    -261.550858     -7117.1607
   1   1.0000    -104.777591     -2851.1432
   2   1.0000    -104.776032     -2851.1008
   3   1.0000    -104.775532     -2851.0872
   4   1.0000     -32.218756      -876.7169
   5   1.0000     -27.694668      -753.6102
   6   1.0000     -27.694469      -753.6048
   7   1.0000     -27.694205      -753.5976
   8   1.0000     -20.555939      -559.3555
   9   1.0000     -11.389209      -309.9161
  10   1.0000     -11.373202      -309.4806
  11   1.0000     -11.280241      -306.9510
  12   1.0000     -11.273592      -306.7700
  13   1.0000     -11.270391      -306.6829
  14   1.0000     -11.259855      -306.3962
  15   1.0000     -11.248541      -306.0884
  16   1.0000     -11.244854      -305.9880
  17   1.0000     -10.504111      -285.8314
  18   1.0000     -10.502625      -285.7910
  19   1.0000     -10.502088      -285.7763
  20   1.0000      -7.970927      -216.9000
  21   1.0000      -7.970199      -216.8802
  22   1.0000      -7.970121      -216.8780
  23   1.0000      -7.969516      -216.8616
  24   1.0000      -7.968896      -216.8447
  25   1.0000      -7.968675      -216.8387
  26   1.0000      -7.968623      -216.8372
  27   1.0000      -7.968196      -216.8256
  28   1.0000      -7.968121      -216.8236
  29   1.0000      -4.574192      -124.4701
  30   1.0000      -3.186739       -86.7156
  31   1.0000      -3.186337       -86.7046
  32   1.0000      -3.185722       -86.6879
  33   1.0000      -1.377506       -37.4838
  34   1.0000      -1.170285       -31.8451
  35   1.0000      -1.084769       -29.5181
  36   1.0000      -1.048973       -28.5440
  37   1.0000      -1.043030       -28.3823
  38   1.0000      -1.042096       -28.3569
  39   1.0000      -1.040059       -28.3015
  40   1.0000      -1.006680       -27.3932
  41   1.0000      -0.977483       -26.5987
  42   1.0000      -0.929697       -25.2984
  43   1.0000      -0.909510       -24.7490
  44   1.0000      -0.903810       -24.5939
  45   1.0000      -0.903518       -24.5860
  46   1.0000      -0.895302       -24.3624
  47   1.0000      -0.894703       -24.3461
  48   1.0000      -0.785339       -21.3702
  49   1.0000      -0.761637       -20.7252
  50   1.0000      -0.695069       -18.9138
  51   1.0000      -0.690271       -18.7832
  52   1.0000      -0.671135       -18.2625
  53   1.0000      -0.646494       -17.5920
  54   1.0000      -0.636794       -17.3280
  55   1.0000      -0.624886       -17.0040
  56   1.0000      -0.598606       -16.2889
  57   1.0000      -0.593053       -16.1378
  58   1.0000      -0.589765       -16.0483
  59   1.0000      -0.582766       -15.8579
  60   1.0000      -0.573161       -15.5965
  61   1.0000      -0.562338       -15.3020
  62   1.0000      -0.552572       -15.0363
  63   1.0000      -0.543485       -14.7890
  64   1.0000      -0.535592       -14.5742
  65   1.0000      -0.531451       -14.4615
  66   1.0000      -0.508683       -13.8420
  67   1.0000      -0.481192       -13.0939
  68   1.0000      -0.464061       -12.6277
  69   1.0000      -0.452459       -12.3120
  70   1.0000      -0.432157       -11.7596
  71   1.0000      -0.427158       -11.6236
  72   1.0000      -0.423994       -11.5375
  73   1.0000      -0.417987       -11.3740
  74   1.0000      -0.415304       -11.3010
  75   1.0000      -0.414327       -11.2744
  76   1.0000      -0.383493       -10.4354
  77   0.0000       0.008947         0.2435
  78   0.0000       0.020165         0.5487
  79   0.0000       0.022502         0.6123
  80   0.0000       0.030726         0.8361
  81   0.0000       0.037136         1.0105

                 SPIN DOWN ORBITALS
  NO   OCC          E(Eh)            E(eV)
   0   1.0000    -261.547309     -7117.0641
   1   1.0000    -104.776261     -2851.1070
   2   1.0000    -104.774651     -2851.0632
   3   1.0000    -104.774100     -2851.0482
   4   1.0000     -32.056774      -872.3092
   5   1.0000     -27.534816      -749.2604
   6   1.0000     -27.534656      -749.2561
   7   1.0000     -27.534223      -749.2443
   8   1.0000     -20.550417      -559.2053
   9   1.0000     -11.389252      -309.9173
  10   1.0000     -11.373216      -309.4809
  11   1.0000     -11.279830      -306.9398
  12   1.0000     -11.273571      -306.7695
  13   1.0000     -11.270401      -306.6832
  14   1.0000     -11.259890      -306.3972
  15   1.0000     -11.248468      -306.0864
  16   1.0000     -11.244821      -305.9871
  17   1.0000     -10.502685      -285.7926
  18   1.0000     -10.501141      -285.7506
  19   1.0000     -10.500556      -285.7346
  20   1.0000      -7.968651      -216.8380
  21   1.0000      -7.968011      -216.8206
  22   1.0000      -7.967930      -216.8184
  23   1.0000      -7.967025      -216.7938
  24   1.0000      -7.966522      -216.7801
  25   1.0000      -7.966480      -216.7789
  26   1.0000      -7.966407      -216.7769
  27   1.0000      -7.965788      -216.7601
  28   1.0000      -7.965724      -216.7584
  29   1.0000      -4.132087      -112.4398
  30   1.0000      -2.653924       -72.2169
  31   1.0000      -2.653796       -72.2135
  32   1.0000      -2.653147       -72.1958
  33   1.0000      -1.363158       -37.0934
  34   1.0000      -1.168964       -31.8091
  35   1.0000      -1.081967       -29.4418
  36   1.0000      -1.039183       -28.2776
  37   1.0000      -1.034359       -28.1463
  38   1.0000      -1.023351       -27.8468
  39   1.0000      -1.021885       -27.8069
  40   1.0000      -1.006340       -27.3839
  41   1.0000      -0.976928       -26.5836
  42   1.0000      -0.924768       -25.1642
  43   1.0000      -0.792558       -21.5666
  44   1.0000      -0.764703       -20.8086
  45   1.0000      -0.695230       -18.9182
  46   1.0000      -0.689765       -18.7695
  47   1.0000      -0.672296       -18.2941
  48   1.0000      -0.647585       -17.6217
  49   1.0000      -0.635041       -17.2803
  50   1.0000      -0.625042       -17.0082
  51   1.0000      -0.597612       -16.2619
  52   1.0000      -0.593101       -16.1391
  53   1.0000      -0.589689       -16.0463
  54   1.0000      -0.581299       -15.8180
  55   1.0000      -0.573044       -15.5933
  56   1.0000      -0.562389       -15.3034
  57   1.0000      -0.551302       -15.0017
  58   1.0000      -0.542742       -14.7688
  59   1.0000      -0.534585       -14.5468
  60   1.0000      -0.526297       -14.3213
  61   1.0000      -0.504394       -13.7252
  62   1.0000      -0.477081       -12.9820
  63   1.0000      -0.468078       -12.7370
  64   1.0000      -0.463052       -12.6003
  65   1.0000      -0.438526       -11.9329
  66   1.0000      -0.435871       -11.8606
  67   1.0000      -0.433962       -11.8087
  68   1.0000      -0.423015       -11.5108
  69   1.0000      -0.413164       -11.2428
  70   1.0000      -0.401602       -10.9281
  71   1.0000      -0.382280       -10.4024
  72   0.0000       0.008935         0.2431
  73   0.0000       0.020052         0.5456
  74   0.0000       0.022483         0.6118
  75   0.0000       0.030768         0.8372
  76   0.0000       0.036643         0.9971

E(0)                                       ...  -3028.416186037
E(0)                                       ...  -3028.416186037
E(CORR)(strong-pairs)                      ...     -2.872271526
E(CORR)(weak-pairs)                        ...     -0.036162551
E(CORR)(corrected)                         ...     -2.908434077
E(TOT)                                     ...  -3031.324620113
E(CCSD(T))                                 ...  -3031.443990754
FINAL SINGLE POINT ENERGY     -3031.443990754065

DIPOLE MOMENT
-------------
                                X             Y             Z
Electronic contribution:     40.54613       3.57123       2.15496
Nuclear contribution   :    -45.04592      -3.38213      -2.64601
                        -----------------------------------------
Total Dipole Moment    :     -4.49979       0.18910      -0.49105
                        -----------------------------------------
Magnitude (a.u.)       :      4.53046
Magnitude (Debye)      :     11.51550

Rotational constants in cm-1:     0.019091     0.011755     0.010727
Rotational constants in MHz :   572.336440   352.407658   321.592454

                             ****ORCA TERMINATED NORMALLY****
TOTAL RUN TIME: 0 days 20 hours 26 minutes 58 seconds 937 msec
