                         Program Version 4.1.2  - RELEASE  -
|  1> ! aug-cc-pVTZ aug-cc-pVTZ/C DLPNO-CCSD(T1) TightSCF NormalPNO UNO MiniPrint AutoAux
|  2> %pal nproc 10 end
|  3> %maxcore 20000
|  4> %mdci
|  5>      density none
|  6> end
|  7>
|  8> * xyz 0 6
|  9>  O     -0.29679300     -0.14413200     -0.43402700
| 10>  C     -1.17875400     -1.07693000     -0.18199100
| 11>  C     -2.59588300     -0.24014200      0.86397000
| 12>  C     -3.11497600      0.65055900     -0.07516500
| 13>  C     -4.26112600      0.29242200     -0.95692300
| 14> Fe      1.54529700      0.17011100     -0.10453500
| 15> Cl      1.89651100      2.10866900     -1.06768600
| 16>  C     -2.43862000      1.94758000     -0.30473400
| 17> Cl      2.52615700     -1.56928900     -1.02632200
| 18> Cl      1.86104700      0.24113200      2.07825700
| 19>  H     -3.21515600     -1.12048800      1.03669400
| 20>  H     -2.93623800      2.56710700     -1.05323000
| 21>  H     -2.30588300      2.51540400      0.62246600
| 22>  H     -1.41281500      1.70626800     -0.64849700
| 23>  H     -5.09612600      0.96832400     -0.72055700
| 24>  H     -4.02098800      0.46770100     -2.01306000
| 25>  H     -4.60204000     -0.73562700     -0.82108000
| 26>  C     -1.88265000      0.30259900      2.09450100
| 27>  H     -2.50613600      1.05593500      2.58865500
| 28>  H     -1.69380700     -0.49275900      2.81653300
| 29>  H     -0.92383900      0.76160900      1.84632900
| 30>  C     -0.74427400     -2.14484600      0.81866200
| 31>  H     -1.56763700     -2.79756300      1.11833100
| 32>  H      0.00939600     -2.74914300      0.29790300
| 33>  H     -0.26393700     -1.71159100      1.69541100
| 34>  C     -1.82338300     -1.65492800     -1.43266500
| 35>  H     -1.07125400     -2.29752300     -1.90493800
| 36>  H     -2.70398200     -2.26340600     -1.20971200
| 37>  H     -2.07810800     -0.87069200     -2.14728400
| 38> *
| 39>
| 40>
| 41>                          ****END OF INPUT****

CARTESIAN COORDINATES (ANGSTROEM)
---------------------------------
  O     -0.296793   -0.144132   -0.434027
  C     -1.178754   -1.076930   -0.181991
  C     -2.595883   -0.240142    0.863970
  C     -3.114976    0.650559   -0.075165
  C     -4.261126    0.292422   -0.956923
  Fe     1.545297    0.170111   -0.104535
  Cl     1.896511    2.108669   -1.067686
  C     -2.438620    1.947580   -0.304734
  Cl     2.526157   -1.569289   -1.026322
  Cl     1.861047    0.241132    2.078257
  H     -3.215156   -1.120488    1.036694
  H     -2.936238    2.567107   -1.053230
  H     -2.305883    2.515404    0.622466
  H     -1.412815    1.706268   -0.648497
  H     -5.096126    0.968324   -0.720557
  H     -4.020988    0.467701   -2.013060
  H     -4.602040   -0.735627   -0.821080
  C     -1.882650    0.302599    2.094501
  H     -2.506136    1.055935    2.588655
  H     -1.693807   -0.492759    2.816533
  H     -0.923839    0.761609    1.846329
  C     -0.744274   -2.144846    0.818662
  H     -1.567637   -2.797563    1.118331
  H      0.009396   -2.749143    0.297903
  H     -0.263937   -1.711591    1.695411
  C     -1.823383   -1.654928   -1.432665
  H     -1.071254   -2.297523   -1.904938
  H     -2.703982   -2.263406   -1.209712
  H     -2.078108   -0.870692   -2.147284

ORBITAL ENERGIES
----------------
                 SPIN UP ORBITALS
  NO   OCC          E(Eh)            E(eV)
   0   1.0000    -261.550214     -7117.1431
   1   1.0000    -104.774263     -2851.0526
   2   1.0000    -104.771613     -2850.9805
   3   1.0000    -104.771551     -2850.9788
   4   1.0000     -32.218084      -876.6986
   5   1.0000     -27.694211      -753.5978
   6   1.0000     -27.693618      -753.5816
   7   1.0000     -27.693476      -753.5778
   8   1.0000     -20.563408      -559.5588
   9   1.0000     -11.385551      -309.8166
  10   1.0000     -11.357870      -309.0634
  11   1.0000     -11.289229      -307.1955
  12   1.0000     -11.278871      -306.9137
  13   1.0000     -11.267684      -306.6093
  14   1.0000     -11.257155      -306.3228
  15   1.0000     -11.249733      -306.1208
  16   1.0000     -11.248889      -306.0978
  17   1.0000     -10.500917      -285.7445
  18   1.0000     -10.498212      -285.6709
  19   1.0000     -10.498184      -285.6701
  20   1.0000      -7.967778      -216.8143
  21   1.0000      -7.966974      -216.7924
  22   1.0000      -7.966936      -216.7913
  23   1.0000      -7.965052      -216.7401
  24   1.0000      -7.965026      -216.7394
  25   1.0000      -7.964336      -216.7206
  26   1.0000      -7.964279      -216.7191
  27   1.0000      -7.964240      -216.7180
  28   1.0000      -7.964197      -216.7168
  29   1.0000      -4.573388      -124.4482
  30   1.0000      -3.186192       -86.7007
  31   1.0000      -3.185243       -86.6749
  32   1.0000      -3.184880       -86.6650
  33   1.0000      -1.401584       -38.1390
  34   1.0000      -1.180542       -32.1242
  35   1.0000      -1.080038       -29.3893
  36   1.0000      -1.046122       -28.4664
  37   1.0000      -1.044437       -28.4206
  38   1.0000      -1.040274       -28.3073
  39   1.0000      -1.038429       -28.2571
  40   1.0000      -1.006001       -27.3747
  41   1.0000      -0.982522       -26.7358
  42   1.0000      -0.925314       -25.1791
  43   1.0000      -0.917112       -24.9559
  44   1.0000      -0.902719       -24.5642
  45   1.0000      -0.902704       -24.5638
  46   1.0000      -0.893296       -24.3078
  47   1.0000      -0.892881       -24.2965
  48   1.0000      -0.790844       -21.5200
  49   1.0000      -0.767363       -20.8810
  50   1.0000      -0.696790       -18.9606
  51   1.0000      -0.689901       -18.7732
  52   1.0000      -0.669703       -18.2235
  53   1.0000      -0.665037       -18.0966
  54   1.0000      -0.656136       -17.8544
  55   1.0000      -0.629845       -17.1390
  56   1.0000      -0.604556       -16.4508
  57   1.0000      -0.594389       -16.1742
  58   1.0000      -0.592159       -16.1135
  59   1.0000      -0.577939       -15.7265
  60   1.0000      -0.575833       -15.6692
  61   1.0000      -0.565260       -15.3815
  62   1.0000      -0.559319       -15.2199
  63   1.0000      -0.543575       -14.7914
  64   1.0000      -0.532742       -14.4967
  65   1.0000      -0.526155       -14.3174
  66   1.0000      -0.510439       -13.8898
  67   1.0000      -0.474379       -12.9085
  68   1.0000      -0.460412       -12.5285
  69   1.0000      -0.450377       -12.2554
  70   1.0000      -0.427614       -11.6360
  71   1.0000      -0.424159       -11.5419
  72   1.0000      -0.420874       -11.4526
  73   1.0000      -0.412682       -11.2296
  74   1.0000      -0.410871       -11.1804
  75   1.0000      -0.410410       -11.1678
  76   1.0000      -0.392765       -10.6877
  77   0.0000       0.005434         0.1479
  78   0.0000       0.013558         0.3689
  79   0.0000       0.018877         0.5137
  80   0.0000       0.020354         0.5539
  81   0.0000       0.028739         0.7820

                 SPIN DOWN ORBITALS
  NO   OCC          E(Eh)            E(eV)
   0   1.0000    -261.546655     -7117.0463
   1   1.0000    -104.772844     -2851.0140
   2   1.0000    -104.770183     -2850.9416
   3   1.0000    -104.770097     -2850.9393
   4   1.0000     -32.055997      -872.2880
   5   1.0000     -27.533991      -749.2380
   6   1.0000     -27.533908      -749.2357
   7   1.0000     -27.533543      -749.2258
   8   1.0000     -20.558824      -559.4340
   9   1.0000     -11.385562      -309.8169
  10   1.0000     -11.357373      -309.0498
  11   1.0000     -11.289298      -307.1974
  12   1.0000     -11.278951      -306.9159
  13   1.0000     -11.267747      -306.6110
  14   1.0000     -11.257050      -306.3199
  15   1.0000     -11.249740      -306.1210
  16   1.0000     -11.248904      -306.0982
  17   1.0000     -10.499395      -285.7031
  18   1.0000     -10.496684      -285.6293
  19   1.0000     -10.496626      -285.6277
  20   1.0000      -7.965295      -216.7467
  21   1.0000      -7.964677      -216.7299
  22   1.0000      -7.964614      -216.7282
  23   1.0000      -7.962662      -216.6750
  24   1.0000      -7.962536      -216.6716
  25   1.0000      -7.961931      -216.6552
  26   1.0000      -7.961898      -216.6543
  27   1.0000      -7.961831      -216.6524
  28   1.0000      -7.961807      -216.6518
  29   1.0000      -4.131049      -112.4116
  30   1.0000      -2.652790       -72.1861
  31   1.0000      -2.652734       -72.1845
  32   1.0000      -2.652006       -72.1647
  33   1.0000      -1.389842       -37.8195
  34   1.0000      -1.179136       -32.0859
  35   1.0000      -1.077532       -29.3211
  36   1.0000      -1.044330       -28.4177
  37   1.0000      -1.030999       -28.0549
  38   1.0000      -1.019270       -27.7357
  39   1.0000      -1.017558       -27.6892
  40   1.0000      -1.005834       -27.3701
  41   1.0000      -0.981936       -26.7198
  42   1.0000      -0.924228       -25.1495
  43   1.0000      -0.803581       -21.8665
  44   1.0000      -0.769089       -20.9280
  45   1.0000      -0.697424       -18.9779
  46   1.0000      -0.689429       -18.7603
  47   1.0000      -0.671914       -18.2837
  48   1.0000      -0.664505       -18.0821
  49   1.0000      -0.655368       -17.8335
  50   1.0000      -0.629382       -17.1264
  51   1.0000      -0.604244       -16.4423
  52   1.0000      -0.594169       -16.1682
  53   1.0000      -0.591596       -16.0981
  54   1.0000      -0.577801       -15.7228
  55   1.0000      -0.575661       -15.6645
  56   1.0000      -0.564935       -15.3727
  57   1.0000      -0.559223       -15.2172
  58   1.0000      -0.542849       -14.7717
  59   1.0000      -0.531961       -14.4754
  60   1.0000      -0.523232       -14.2379
  61   1.0000      -0.502296       -13.6682
  62   1.0000      -0.471827       -12.8391
  63   1.0000      -0.464492       -12.6395
  64   1.0000      -0.460759       -12.5379
  65   1.0000      -0.435499       -11.8505
  66   1.0000      -0.432734       -11.7753
  67   1.0000      -0.430673       -11.7192
  68   1.0000      -0.421054       -11.4575
  69   1.0000      -0.410343       -11.1660
  70   1.0000      -0.396371       -10.7858
  71   1.0000      -0.388866       -10.5816
  72   0.0000       0.005437         0.1479
  73   0.0000       0.013926         0.3790
  74   0.0000       0.018885         0.5139
  75   0.0000       0.020297         0.5523
  76   0.0000       0.028710         0.7812

E(0)                                       ...  -3028.429038492
E(0)                                       ...  -3028.429038492
E(CORR)(strong-pairs)                      ...     -2.874925362
E(CORR)(weak-pairs)                        ...     -0.035492881
E(CORR)(corrected)                         ...     -2.910418243
E(TOT)                                     ...  -3031.339456735
E(CCSD(T))                                 ...  -3031.460139019
FINAL SINGLE POINT ENERGY     -3031.460139018891

DIPOLE MOMENT
-------------
                                X             Y             Z
Electronic contribution:     44.07650       5.98582      -1.87883
Nuclear contribution   :    -49.42462      -6.51944       1.84960
                        -----------------------------------------
Total Dipole Moment    :     -5.34812      -0.53362      -0.02923
                        -----------------------------------------
Magnitude (a.u.)       :      5.37476
Magnitude (Debye)      :     13.66155

Rotational constants in cm-1:     0.020146     0.009957     0.009545
Rotational constants in MHz :   603.971473   298.511366   286.154891

                             ****ORCA TERMINATED NORMALLY****
TOTAL RUN TIME: 0 days 21 hours 8 minutes 39 seconds 247 msec
