                         Program Version 4.1.2  - RELEASE  -
|  1> ! aug-cc-pVTZ aug-cc-pVTZ/C DLPNO-CCSD(T1) TightSCF NormalPNO UNO MiniPrint AutoAux
|  2> %pal nproc 10 end
|  3> %maxcore 20000
|  4> %mdci
|  5>      density none
|  6> end
|  7>
|  8> * xyz 0 6
|  9>  O     -0.30192200     -0.19746300     -0.75348300
| 10>  C     -1.20102300     -1.11502400     -0.59959500
| 11>  C     -2.80087100     -0.27598400      0.47115300
| 12>  C     -2.53540000      0.95265900     -0.08356000
| 13>  C     -3.08874200      1.36107500     -1.41072800
| 14> Fe      1.42674800      0.12668100     -0.01517800
| 15> Cl      1.99002600      2.08144300     -0.83107800
| 16>  C     -1.64027900      1.95513100      0.55766500
| 17> Cl      2.63942600     -1.57524600     -0.68224400
| 18> Cl      1.18936500      0.16349300      2.18724200
| 19>  H     -3.57701500     -0.86297900     -0.01679400
| 20>  H     -2.22527400      2.85692000      0.78617800
| 21>  H     -1.16672200      1.60595900      1.47318800
| 22>  H     -0.85767200      2.26269400     -0.14720200
| 23>  H     -3.58458200      2.33465900     -1.30943700
| 24>  H     -2.26918000      1.50732500     -2.12697900
| 25>  H     -3.80828400      0.64676200     -1.81503100
| 26>  C     -2.62373100     -0.55802700      1.94951200
| 27>  H     -3.37822700      0.00023400      2.51721300
| 28>  H     -2.77330900     -1.61717200      2.16851900
| 29>  H     -1.64105600     -0.26898000      2.32768300
| 30>  C     -0.88556000     -2.25320800      0.34764200
| 31>  H     -1.73938700     -2.91425600      0.50719300
| 32>  H     -0.08975400     -2.82541000     -0.14883700
| 33>  H     -0.48816500     -1.90457900      1.29998200
| 34>  C     -1.88418800     -1.54866000     -1.88278600
| 35>  H     -1.15035200     -2.17196700     -2.40979100
| 36>  H     -2.77776300     -2.15063300     -1.70486600
| 37>  H     -2.11445400     -0.70506900     -2.53098200
| 38> *
| 39>
| 40>
| 41>                          ****END OF INPUT****

CARTESIAN COORDINATES (ANGSTROEM)
---------------------------------
  O     -0.301922   -0.197463   -0.753483
  C     -1.201023   -1.115024   -0.599595
  C     -2.800871   -0.275984    0.471153
  C     -2.535400    0.952659   -0.083560
  C     -3.088742    1.361075   -1.410728
  Fe     1.426748    0.126681   -0.015178
  Cl     1.990026    2.081443   -0.831078
  C     -1.640279    1.955131    0.557665
  Cl     2.639426   -1.575246   -0.682244
  Cl     1.189365    0.163493    2.187242
  H     -3.577015   -0.862979   -0.016794
  H     -2.225274    2.856920    0.786178
  H     -1.166722    1.605959    1.473188
  H     -0.857672    2.262694   -0.147202
  H     -3.584582    2.334659   -1.309437
  H     -2.269180    1.507325   -2.126979
  H     -3.808284    0.646762   -1.815031
  C     -2.623731   -0.558027    1.949512
  H     -3.378227    0.000234    2.517213
  H     -2.773309   -1.617172    2.168519
  H     -1.641056   -0.268980    2.327683
  C     -0.885560   -2.253208    0.347642
  H     -1.739387   -2.914256    0.507193
  H     -0.089754   -2.825410   -0.148837
  H     -0.488165   -1.904579    1.299982
  C     -1.884188   -1.548660   -1.882786
  H     -1.150352   -2.171967   -2.409791
  H     -2.777763   -2.150633   -1.704866
  H     -2.114454   -0.705069   -2.530982

ORBITAL ENERGIES
----------------
                 SPIN UP ORBITALS
  NO   OCC          E(Eh)            E(eV)
   0   1.0000    -261.559409     -7117.3934
   1   1.0000    -104.783334     -2851.2995
   2   1.0000    -104.778677     -2851.1728
   3   1.0000    -104.778587     -2851.1703
   4   1.0000     -32.227270      -876.9486
   5   1.0000     -27.703393      -753.8476
   6   1.0000     -27.702828      -753.8323
   7   1.0000     -27.702627      -753.8268
   8   1.0000     -20.574657      -559.8649
   9   1.0000     -11.402936      -310.2897
  10   1.0000     -11.328059      -308.2521
  11   1.0000     -11.268451      -306.6301
  12   1.0000     -11.268342      -306.6272
  13   1.0000     -11.263530      -306.4962
  14   1.0000     -11.257128      -306.3220
  15   1.0000     -11.250383      -306.1385
  16   1.0000     -11.247731      -306.0663
  17   1.0000     -10.509985      -285.9912
  18   1.0000     -10.505325      -285.8644
  19   1.0000     -10.505193      -285.8608
  20   1.0000      -7.976862      -217.0615
  21   1.0000      -7.976019      -217.0385
  22   1.0000      -7.975989      -217.0377
  23   1.0000      -7.972178      -216.9340
  24   1.0000      -7.972003      -216.9292
  25   1.0000      -7.971425      -216.9135
  26   1.0000      -7.971358      -216.9117
  27   1.0000      -7.971303      -216.9102
  28   1.0000      -7.971234      -216.9083
  29   1.0000      -4.582472      -124.6954
  30   1.0000      -3.195237       -86.9468
  31   1.0000      -3.194291       -86.9211
  32   1.0000      -3.193964       -86.9122
  33   1.0000      -1.419527       -38.6273
  34   1.0000      -1.162118       -31.6228
  35   1.0000      -1.086772       -29.5726
  36   1.0000      -1.054621       -28.6977
  37   1.0000      -1.048804       -28.5394
  38   1.0000      -1.046110       -28.4661
  39   1.0000      -1.037219       -28.2242
  40   1.0000      -0.994315       -27.0567
  41   1.0000      -0.984059       -26.7776
  42   1.0000      -0.928605       -25.2686
  43   1.0000      -0.917954       -24.9788
  44   1.0000      -0.911687       -24.8083
  45   1.0000      -0.911625       -24.8066
  46   1.0000      -0.902324       -24.5535
  47   1.0000      -0.901575       -24.5331
  48   1.0000      -0.793535       -21.5932
  49   1.0000      -0.756088       -20.5742
  50   1.0000      -0.691786       -18.8245
  51   1.0000      -0.688753       -18.7419
  52   1.0000      -0.679853       -18.4997
  53   1.0000      -0.665692       -18.1144
  54   1.0000      -0.643920       -17.5220
  55   1.0000      -0.624791       -17.0014
  56   1.0000      -0.602916       -16.4062
  57   1.0000      -0.593873       -16.1601
  58   1.0000      -0.582678       -15.8555
  59   1.0000      -0.574112       -15.6224
  60   1.0000      -0.569389       -15.4939
  61   1.0000      -0.560916       -15.2633
  62   1.0000      -0.555151       -15.1064
  63   1.0000      -0.548137       -14.9156
  64   1.0000      -0.541348       -14.7308
  65   1.0000      -0.521419       -14.1885
  66   1.0000      -0.518009       -14.0958
  67   1.0000      -0.483531       -13.1576
  68   1.0000      -0.466743       -12.7007
  69   1.0000      -0.461270       -12.5518
  70   1.0000      -0.434097       -11.8124
  71   1.0000      -0.430668       -11.7191
  72   1.0000      -0.428989       -11.6734
  73   1.0000      -0.420025       -11.4295
  74   1.0000      -0.418703       -11.3935
  75   1.0000      -0.417852       -11.3703
  76   1.0000      -0.380161       -10.3447
  77   0.0000       0.010315         0.2807
  78   0.0000       0.020626         0.5613
  79   0.0000       0.022314         0.6072
  80   0.0000       0.028560         0.7772
  81   0.0000       0.034980         0.9519

                 SPIN DOWN ORBITALS
  NO   OCC          E(Eh)            E(eV)
   0   1.0000    -261.555854     -7117.2966
   1   1.0000    -104.781946     -2851.2617
   2   1.0000    -104.777188     -2851.1322
   3   1.0000    -104.777144     -2851.1310
   4   1.0000     -32.065200      -872.5385
   5   1.0000     -27.543186      -749.4882
   6   1.0000     -27.543093      -749.4857
   7   1.0000     -27.542765      -749.4767
   8   1.0000     -20.570120      -559.7414
   9   1.0000     -11.402895      -310.2886
  10   1.0000     -11.327866      -308.2469
  11   1.0000     -11.268425      -306.6294
  12   1.0000     -11.268367      -306.6278
  13   1.0000     -11.263415      -306.4931
  14   1.0000     -11.257108      -306.3215
  15   1.0000     -11.250430      -306.1398
  16   1.0000     -11.247734      -306.0664
  17   1.0000     -10.508494      -285.9507
  18   1.0000     -10.503733      -285.8211
  19   1.0000     -10.503653      -285.8189
  20   1.0000      -7.974370      -216.9936
  21   1.0000      -7.973809      -216.9784
  22   1.0000      -7.973749      -216.9767
  23   1.0000      -7.969651      -216.8652
  24   1.0000      -7.969629      -216.8646
  25   1.0000      -7.968960      -216.8464
  26   1.0000      -7.968875      -216.8441
  27   1.0000      -7.968873      -216.8440
  28   1.0000      -7.968783      -216.8416
  29   1.0000      -4.140158      -112.6594
  30   1.0000      -2.661874       -72.4333
  31   1.0000      -2.661836       -72.4322
  32   1.0000      -2.661023       -72.4101
  33   1.0000      -1.408014       -38.3140
  34   1.0000      -1.161306       -31.6007
  35   1.0000      -1.084025       -29.4978
  36   1.0000      -1.040412       -28.3110
  37   1.0000      -1.036557       -28.2061
  38   1.0000      -1.027692       -27.9649
  39   1.0000      -1.024768       -27.8854
  40   1.0000      -0.993696       -27.0398
  41   1.0000      -0.983777       -26.7699
  42   1.0000      -0.919785       -25.0286
  43   1.0000      -0.806800       -21.9541
  44   1.0000      -0.756449       -20.5840
  45   1.0000      -0.693843       -18.8804
  46   1.0000      -0.688146       -18.7254
  47   1.0000      -0.680145       -18.5077
  48   1.0000      -0.664968       -18.0947
  49   1.0000      -0.643762       -17.5176
  50   1.0000      -0.624315       -16.9885
  51   1.0000      -0.602149       -16.3853
  52   1.0000      -0.593929       -16.1616
  53   1.0000      -0.582514       -15.8510
  54   1.0000      -0.573312       -15.6006
  55   1.0000      -0.569247       -15.4900
  56   1.0000      -0.560743       -15.2586
  57   1.0000      -0.554854       -15.0983
  58   1.0000      -0.547145       -14.8886
  59   1.0000      -0.537755       -14.6331
  60   1.0000      -0.518384       -14.1060
  61   1.0000      -0.510772       -13.8988
  62   1.0000      -0.482478       -13.1289
  63   1.0000      -0.472558       -12.8589
  64   1.0000      -0.470385       -12.7998
  65   1.0000      -0.443366       -12.0646
  66   1.0000      -0.440289       -11.9809
  67   1.0000      -0.437956       -11.9174
  68   1.0000      -0.423819       -11.5327
  69   1.0000      -0.418238       -11.3808
  70   1.0000      -0.404305       -11.0017
  71   1.0000      -0.377488       -10.2720
  72   0.0000       0.010308         0.2805
  73   0.0000       0.020594         0.5604
  74   0.0000       0.022304         0.6069
  75   0.0000       0.028309         0.7703
  76   0.0000       0.034470         0.9380

E(0)                                       ...  -3028.432407131
E(0)                                       ...  -3028.432407131
E(CORR)(strong-pairs)                      ...     -2.874185397
E(CORR)(weak-pairs)                        ...     -0.036447512
E(CORR)(corrected)                         ...     -2.910632908
E(TOT)                                     ...  -3031.343040039
E(CCSD(T))                                 ...  -3031.463179132
FINAL SINGLE POINT ENERGY     -3031.463179132244

DIPOLE MOMENT
-------------
                                X             Y             Z
Electronic contribution:     41.36602       4.86401       1.46427
Nuclear contribution   :    -45.69967      -5.44624      -1.97324
                        -----------------------------------------
Total Dipole Moment    :     -4.33365      -0.58223      -0.50897
                        -----------------------------------------
Magnitude (a.u.)       :      4.40210
Magnitude (Debye)      :     11.18926

Rotational constants in cm-1:     0.019147     0.011258     0.010553
Rotational constants in MHz :   574.008347   337.501527   316.379754

                             ****ORCA TERMINATED NORMALLY****
TOTAL RUN TIME: 1 days 2 hours 23 minutes 19 seconds 115 msec
