                         Program Version 4.1.2  - RELEASE  -
|  1> ! aug-cc-pVTZ aug-cc-pVTZ/C DLPNO-CCSD(T1) TightSCF NormalPNO UNO MiniPrint AutoAux
|  2> %pal nproc 10 end
|  3> %maxcore 20000
|  4> %mdci
|  5>      density none
|  6> end
|  7>
|  8> * xyz 0 6
|  9>  O     -0.26087500     -0.36103500     -0.60075700
| 10>  C     -1.30765800     -1.14300900     -0.26699800
| 11>  C     -2.32653300     -0.30088000      0.80198000
| 12>  C     -2.94915400      0.70236500     -0.01351100
| 13>  C     -4.30599700      0.50702100     -0.57741600
| 14> Fe      1.47955800      0.12531200     -0.10290400
| 15> Cl      2.77593500     -0.40303300     -1.79119900
| 16>  C     -2.17209300      1.87025400     -0.41846500
| 17> Cl      2.06964900     -0.88712900      1.76986000
| 18> Cl      1.30801400      2.31898600      0.23703300
| 19>  H     -3.05434700     -1.05452000      1.11372800
| 20>  H     -2.69222700      2.54528300     -1.09903300
| 21>  H     -1.74036500      2.41623400      0.42751100
| 22>  H     -1.26107600      1.43659900     -0.89638400
| 23>  H     -4.96975300      1.22938900     -0.07472400
| 24>  H     -4.33810900      0.76299300     -1.64304000
| 25>  H     -4.70332500     -0.49549600     -0.41181900
| 26>  C     -1.50155900      0.21899600      1.98726600
| 27>  H     -2.14272500      0.80463700      2.65401100
| 28>  H     -1.08795600     -0.60943200      2.56197300
| 29>  H     -0.67329200      0.84877400      1.66348200
| 30>  C     -0.90394600     -2.40087300      0.52620600
| 31>  H     -1.78059100     -2.98414400      0.82290200
| 32>  H     -0.28741000     -3.01138900     -0.14145900
| 33>  H     -0.29985900     -2.16218400      1.39992100
| 34>  C     -2.07289500     -1.55292100     -1.53484300
| 35>  H     -1.42723200     -2.21724800     -2.11602000
| 36>  H     -3.00093800     -2.08758800     -1.30625500
| 37>  H     -2.29445500     -0.68743500     -2.16535300
| 38> *
| 39>
| 40>
| 41>                          ****END OF INPUT****

CARTESIAN COORDINATES (ANGSTROEM)
---------------------------------
  O     -0.260875   -0.361035   -0.600757
  C     -1.307658   -1.143009   -0.266998
  C     -2.326533   -0.300880    0.801980
  C     -2.949154    0.702365   -0.013511
  C     -4.305997    0.507021   -0.577416
  Fe     1.479558    0.125312   -0.102904
  Cl     2.775935   -0.403033   -1.791199
  C     -2.172093    1.870254   -0.418465
  Cl     2.069649   -0.887129    1.769860
  Cl     1.308014    2.318986    0.237033
  H     -3.054347   -1.054520    1.113728
  H     -2.692227    2.545283   -1.099033
  H     -1.740365    2.416234    0.427511
  H     -1.261076    1.436599   -0.896384
  H     -4.969753    1.229389   -0.074724
  H     -4.338109    0.762993   -1.643040
  H     -4.703325   -0.495496   -0.411819
  C     -1.501559    0.218996    1.987266
  H     -2.142725    0.804637    2.654011
  H     -1.087956   -0.609432    2.561973
  H     -0.673292    0.848774    1.663482
  C     -0.903946   -2.400873    0.526206
  H     -1.780591   -2.984144    0.822902
  H     -0.287410   -3.011389   -0.141459
  H     -0.299859   -2.162184    1.399921
  C     -2.072895   -1.552921   -1.534843
  H     -1.427232   -2.217248   -2.116020
  H     -3.000938   -2.087588   -1.306255
  H     -2.294455   -0.687435   -2.165353

ORBITAL ENERGIES
----------------
                 SPIN UP ORBITALS
  NO   OCC          E(Eh)            E(eV)
   0   1.0000    -261.539635     -7116.8553
   1   1.0000    -104.768429     -2850.8939
   2   1.0000    -104.766417     -2850.8392
   3   1.0000    -104.759508     -2850.6511
   4   1.0000     -32.207431      -876.4087
   5   1.0000     -27.683313      -753.3012
   6   1.0000     -27.683216      -753.2986
   7   1.0000     -27.682903      -753.2901
   8   1.0000     -20.536927      -558.8382
   9   1.0000     -11.403788      -310.3128
  10   1.0000     -11.349653      -308.8398
  11   1.0000     -11.310979      -307.7874
  12   1.0000     -11.291645      -307.2613
  13   1.0000     -11.280328      -306.9533
  14   1.0000     -11.253653      -306.2275
  15   1.0000     -11.248598      -306.0899
  16   1.0000     -11.234879      -305.7166
  17   1.0000     -10.495055      -285.5850
  18   1.0000     -10.493150      -285.5331
  19   1.0000     -10.486107      -285.3415
  20   1.0000      -7.961954      -216.6558
  21   1.0000      -7.961111      -216.6328
  22   1.0000      -7.961020      -216.6304
  23   1.0000      -7.960000      -216.6026
  24   1.0000      -7.959204      -216.5809
  25   1.0000      -7.959190      -216.5806
  26   1.0000      -7.952953      -216.4109
  27   1.0000      -7.952239      -216.3914
  28   1.0000      -7.952115      -216.3881
  29   1.0000      -4.562760      -124.1590
  30   1.0000      -3.175266       -86.4034
  31   1.0000      -3.174805       -86.3908
  32   1.0000      -3.174519       -86.3831
  33   1.0000      -1.366151       -37.1749
  34   1.0000      -1.205289       -32.7976
  35   1.0000      -1.087239       -29.5853
  36   1.0000      -1.048486       -28.5308
  37   1.0000      -1.038427       -28.2570
  38   1.0000      -1.034176       -28.1414
  39   1.0000      -1.027812       -27.9682
  40   1.0000      -1.025448       -27.9039
  41   1.0000      -0.967701       -26.3325
  42   1.0000      -0.932795       -25.3826
  43   1.0000      -0.905605       -24.6428
  44   1.0000      -0.892555       -24.2877
  45   1.0000      -0.891618       -24.2622
  46   1.0000      -0.884138       -24.0586
  47   1.0000      -0.882968       -24.0268
  48   1.0000      -0.805123       -21.9085
  49   1.0000      -0.768504       -20.9121
  50   1.0000      -0.715388       -19.4667
  51   1.0000      -0.697432       -18.9781
  52   1.0000      -0.677667       -18.4403
  53   1.0000      -0.653428       -17.7807
  54   1.0000      -0.646308       -17.5869
  55   1.0000      -0.637292       -17.3416
  56   1.0000      -0.612976       -16.6799
  57   1.0000      -0.599921       -16.3247
  58   1.0000      -0.594170       -16.1682
  59   1.0000      -0.581359       -15.8196
  60   1.0000      -0.576870       -15.6974
  61   1.0000      -0.563656       -15.3379
  62   1.0000      -0.553193       -15.0531
  63   1.0000      -0.540399       -14.7050
  64   1.0000      -0.531662       -14.4673
  65   1.0000      -0.521410       -14.1883
  66   1.0000      -0.500475       -13.6186
  67   1.0000      -0.460548       -12.5321
  68   1.0000      -0.458382       -12.4732
  69   1.0000      -0.440783       -11.9943
  70   1.0000      -0.423501       -11.5240
  71   1.0000      -0.418645       -11.3919
  72   1.0000      -0.413833       -11.2610
  73   1.0000      -0.408332       -11.1113
  74   1.0000      -0.405624       -11.0376
  75   1.0000      -0.402952       -10.9649
  76   1.0000      -0.400284       -10.8923
  77   0.0000      -0.007123        -0.1938
  78   0.0000      -0.000094        -0.0025
  79   0.0000       0.016523         0.4496
  80   0.0000       0.017190         0.4678
  81   0.0000       0.026546         0.7223

                 SPIN DOWN ORBITALS
  NO   OCC          E(Eh)            E(eV)
   0   1.0000    -261.536107     -7116.7593
   1   1.0000    -104.767123     -2850.8584
   2   1.0000    -104.765014     -2850.8010
   3   1.0000    -104.758056     -2850.6116
   4   1.0000     -32.045329      -871.9977
   5   1.0000     -27.523457      -748.9513
   6   1.0000     -27.523296      -748.9470
   7   1.0000     -27.522727      -748.9315
   8   1.0000     -20.531233      -558.6832
   9   1.0000     -11.403790      -310.3129
  10   1.0000     -11.349491      -308.8353
  11   1.0000     -11.310981      -307.7874
  12   1.0000     -11.291535      -307.2583
  13   1.0000     -11.280328      -306.9533
  14   1.0000     -11.253690      -306.2285
  15   1.0000     -11.248485      -306.0868
  16   1.0000     -11.234826      -305.7152
  17   1.0000     -10.493647      -285.5467
  18   1.0000     -10.491643      -285.4921
  19   1.0000     -10.484554      -285.2992
  20   1.0000      -7.959518      -216.5895
  21   1.0000      -7.959075      -216.5774
  22   1.0000      -7.958983      -216.5749
  23   1.0000      -7.957563      -216.5363
  24   1.0000      -7.956924      -216.5189
  25   1.0000      -7.956891      -216.5180
  26   1.0000      -7.950502      -216.3442
  27   1.0000      -7.949807      -216.3253
  28   1.0000      -7.949710      -216.3226
  29   1.0000      -4.120387      -112.1214
  30   1.0000      -2.642487       -71.9057
  31   1.0000      -2.642132       -71.8961
  32   1.0000      -2.641041       -71.8664
  33   1.0000      -1.351660       -36.7805
  34   1.0000      -1.204487       -32.7758
  35   1.0000      -1.084690       -29.5159
  36   1.0000      -1.047306       -28.4986
  37   1.0000      -1.025078       -27.8938
  38   1.0000      -1.024326       -27.8733
  39   1.0000      -1.014041       -27.5935
  40   1.0000      -1.006924       -27.3998
  41   1.0000      -0.967051       -26.3148
  42   1.0000      -0.932586       -25.3770
  43   1.0000      -0.810099       -22.0439
  44   1.0000      -0.776268       -21.1233
  45   1.0000      -0.715928       -19.4814
  46   1.0000      -0.697166       -18.9709
  47   1.0000      -0.677687       -18.4408
  48   1.0000      -0.655502       -17.8371
  49   1.0000      -0.646218       -17.5845
  50   1.0000      -0.635741       -17.2994
  51   1.0000      -0.612936       -16.6788
  52   1.0000      -0.599734       -16.3196
  53   1.0000      -0.593917       -16.1613
  54   1.0000      -0.580716       -15.8021
  55   1.0000      -0.575847       -15.6696
  56   1.0000      -0.563145       -15.3239
  57   1.0000      -0.553202       -15.0534
  58   1.0000      -0.540200       -14.6996
  59   1.0000      -0.529955       -14.4208
  60   1.0000      -0.515927       -14.0391
  61   1.0000      -0.493775       -13.4363
  62   1.0000      -0.461048       -12.5457
  63   1.0000      -0.456823       -12.4308
  64   1.0000      -0.446727       -12.1560
  65   1.0000      -0.431418       -11.7395
  66   1.0000      -0.428355       -11.6561
  67   1.0000      -0.424520       -11.5518
  68   1.0000      -0.422672       -11.5015
  69   1.0000      -0.402770       -10.9599
  70   1.0000      -0.393246       -10.7008
  71   1.0000      -0.389216       -10.5911
  72   0.0000      -0.007429        -0.2022
  73   0.0000      -0.000093        -0.0025
  74   0.0000       0.016514         0.4494
  75   0.0000       0.017171         0.4672
  76   0.0000       0.026563         0.7228

E(0)                                       ...  -3028.423883717
E(0)                                       ...  -3028.423883717
E(CORR)(strong-pairs)                      ...     -2.874451743
E(CORR)(weak-pairs)                        ...     -0.035074953
E(CORR)(corrected)                         ...     -2.909526696
E(TOT)                                     ...  -3031.333410413
E(CCSD(T))                                 ...  -3031.452685820
FINAL SINGLE POINT ENERGY     -3031.452685820449

DIPOLE MOMENT
-------------
                                X             Y             Z
Electronic contribution:     42.24476       6.88866      -0.78818
Nuclear contribution   :    -48.39064      -6.95916       0.83354
                        -----------------------------------------
Total Dipole Moment    :     -6.14587      -0.07050       0.04536
                        -----------------------------------------
Magnitude (a.u.)       :      6.14645
Magnitude (Debye)      :     15.62303

Rotational constants in cm-1:     0.020829     0.010308     0.009811
Rotational constants in MHz :   624.450975   309.027547   294.130684

                             ****ORCA TERMINATED NORMALLY****
TOTAL RUN TIME: 0 days 20 hours 56 minutes 46 seconds 590 msec
