                         Program Version 4.1.2  - RELEASE  -
|  1> ! aug-cc-pVTZ aug-cc-pVTZ/C DLPNO-CCSD(T1) TightSCF NormalPNO UNO MiniPrint AutoAux
|  2> %pal nproc 10 end
|  3> %maxcore 20000
|  4> %mdci
|  5>      density none
|  6> end
|  7>
|  8> * xyz 0 6
|  9>  O     -0.33613300     -0.15800900     -0.57755600
| 10>  C     -1.20700800     -1.12305600     -0.42704500
| 11>  C     -2.66571700     -0.38476500      0.63578000
| 12>  C     -2.74504200      0.81669900     -0.05831800
| 13>  C     -3.60366200      0.96643400     -1.26929800
| 14> Fe      1.45436400      0.16128000     -0.05547400
| 15> Cl      1.83765500      2.15794400     -0.89175300
| 16>  C     -1.92864200      1.98998800      0.31131400
| 17> Cl      2.62018300     -1.49202800     -0.90972600
| 18> Cl      1.48962600      0.17568200      2.15728900
| 19>  H     -3.42763700     -1.11771700      0.37150300
| 20>  H     -2.35139000      2.92404300     -0.06720500
| 21>  H     -1.72512400      2.06538300      1.38057700
| 22>  H     -0.95278400      1.84691400     -0.18721200
| 23>  H     -4.36506400      1.72914800     -1.05413500
| 24>  H     -3.01961600      1.35037000     -2.11586500
| 25>  H     -4.11218700      0.04508900     -1.55606000
| 26>  C     -2.24281100     -0.39476200      2.09579400
| 27>  H     -2.92765000      0.22958100      2.68124200
| 28>  H     -2.28956700     -1.40474100      2.50629000
| 29>  H     -1.22872700     -0.01628500      2.24203600
| 30>  C     -0.78183700     -2.28547600      0.46183100
| 31>  H     -1.60493600     -2.97406000      0.66839600
| 32>  H     -0.01022000     -2.82257600     -0.10398800
| 33>  H     -0.32850600     -1.94811700      1.39308200
| 34>  C     -1.83146900     -1.58502800     -1.73700800
| 35>  H     -1.07079000     -2.19313100     -2.24032500
| 36>  H     -2.72037200     -2.20409300     -1.58868900
| 37>  H     -2.05957400     -0.74640200     -2.39395500
| 38> *
| 39>
| 40>
| 41>                          ****END OF INPUT****

CARTESIAN COORDINATES (ANGSTROEM)
---------------------------------
  O     -0.336133   -0.158009   -0.577556
  C     -1.207008   -1.123056   -0.427045
  C     -2.665717   -0.384765    0.635780
  C     -2.745042    0.816699   -0.058318
  C     -3.603662    0.966434   -1.269298
  Fe     1.454364    0.161280   -0.055474
  Cl     1.837655    2.157944   -0.891753
  C     -1.928642    1.989988    0.311314
  Cl     2.620183   -1.492028   -0.909726
  Cl     1.489626    0.175682    2.157289
  H     -3.427637   -1.117717    0.371503
  H     -2.351390    2.924043   -0.067205
  H     -1.725124    2.065383    1.380577
  H     -0.952784    1.846914   -0.187212
  H     -4.365064    1.729148   -1.054135
  H     -3.019616    1.350370   -2.115865
  H     -4.112187    0.045089   -1.556060
  C     -2.242811   -0.394762    2.095794
  H     -2.927650    0.229581    2.681242
  H     -2.289567   -1.404741    2.506290
  H     -1.228727   -0.016285    2.242036
  C     -0.781837   -2.285476    0.461831
  H     -1.604936   -2.974060    0.668396
  H     -0.010220   -2.822576   -0.103988
  H     -0.328506   -1.948117    1.393082
  C     -1.831469   -1.585028   -1.737008
  H     -1.070790   -2.193131   -2.240325
  H     -2.720372   -2.204093   -1.588689
  H     -2.059574   -0.746402   -2.393955

ORBITAL ENERGIES
----------------
                 SPIN UP ORBITALS
  NO   OCC          E(Eh)            E(eV)
   0   1.0000    -261.552053     -7117.1932
   1   1.0000    -104.777425     -2851.1387
   2   1.0000    -104.774324     -2851.0543
   3   1.0000    -104.774225     -2851.0516
   4   1.0000     -32.219952      -876.7495
   5   1.0000     -27.695992      -753.6463
   6   1.0000     -27.695562      -753.6345
   7   1.0000     -27.695352      -753.6288
   8   1.0000     -20.559652      -559.4566
   9   1.0000     -11.385574      -309.8172
  10   1.0000     -11.354743      -308.9783
  11   1.0000     -11.283793      -307.0476
  12   1.0000     -11.277902      -306.8873
  13   1.0000     -11.260146      -306.4042
  14   1.0000     -11.256082      -306.2936
  15   1.0000     -11.249432      -306.1126
  16   1.0000     -11.249022      -306.1015
  17   1.0000     -10.504053      -285.8298
  18   1.0000     -10.500900      -285.7440
  19   1.0000     -10.500854      -285.7428
  20   1.0000      -7.970928      -216.9000
  21   1.0000      -7.970097      -216.8774
  22   1.0000      -7.970055      -216.8762
  23   1.0000      -7.967723      -216.8128
  24   1.0000      -7.967689      -216.8118
  25   1.0000      -7.967005      -216.7932
  26   1.0000      -7.966956      -216.7919
  27   1.0000      -7.966920      -216.7909
  28   1.0000      -7.966885      -216.7900
  29   1.0000      -4.575297      -124.5001
  30   1.0000      -3.187979       -86.7493
  31   1.0000      -3.187257       -86.7297
  32   1.0000      -3.186818       -86.7177
  33   1.0000      -1.402662       -38.1684
  34   1.0000      -1.177774       -32.0489
  35   1.0000      -1.082470       -29.4555
  36   1.0000      -1.048736       -28.5376
  37   1.0000      -1.044253       -28.4156
  38   1.0000      -1.042023       -28.3549
  39   1.0000      -1.041061       -28.3287
  40   1.0000      -1.000853       -27.2346
  41   1.0000      -0.982181       -26.7265
  42   1.0000      -0.928139       -25.2559
  43   1.0000      -0.917191       -24.9580
  44   1.0000      -0.904685       -24.6177
  45   1.0000      -0.904644       -24.6166
  46   1.0000      -0.895596       -24.3704
  47   1.0000      -0.895101       -24.3569
  48   1.0000      -0.789205       -21.4754
  49   1.0000      -0.766205       -20.8495
  50   1.0000      -0.697037       -18.9673
  51   1.0000      -0.690971       -18.8023
  52   1.0000      -0.671578       -18.2746
  53   1.0000      -0.661501       -18.0004
  54   1.0000      -0.652298       -17.7499
  55   1.0000      -0.626813       -17.0565
  56   1.0000      -0.599537       -16.3142
  57   1.0000      -0.597610       -16.2618
  58   1.0000      -0.588603       -16.0167
  59   1.0000      -0.577271       -15.7083
  60   1.0000      -0.574121       -15.6226
  61   1.0000      -0.566334       -15.4107
  62   1.0000      -0.555249       -15.1091
  63   1.0000      -0.545296       -14.8383
  64   1.0000      -0.530495       -14.4355
  65   1.0000      -0.525781       -14.3072
  66   1.0000      -0.513674       -13.9778
  67   1.0000      -0.475763       -12.9462
  68   1.0000      -0.463272       -12.6063
  69   1.0000      -0.453038       -12.3278
  70   1.0000      -0.428721       -11.6661
  71   1.0000      -0.426975       -11.6186
  72   1.0000      -0.423735       -11.5304
  73   1.0000      -0.415467       -11.3054
  74   1.0000      -0.413774       -11.2594
  75   1.0000      -0.413352       -11.2479
  76   1.0000      -0.391297       -10.6477
  77   0.0000       0.007438         0.2024
  78   0.0000       0.018772         0.5108
  79   0.0000       0.020342         0.5535
  80   0.0000       0.021766         0.5923
  81   0.0000       0.030475         0.8293

                 SPIN DOWN ORBITALS
  NO   OCC          E(Eh)            E(eV)
   0   1.0000    -261.548498     -7117.0965
   1   1.0000    -104.776032     -2851.1008
   2   1.0000    -104.772914     -2851.0159
   3   1.0000    -104.772771     -2851.0121
   4   1.0000     -32.057895      -872.3397
   5   1.0000     -27.535913      -749.2903
   6   1.0000     -27.535783      -749.2867
   7   1.0000     -27.535406      -749.2765
   8   1.0000     -20.554682      -559.3213
   9   1.0000     -11.385547      -309.8165
  10   1.0000     -11.354620      -308.9749
  11   1.0000     -11.283810      -307.0481
  12   1.0000     -11.277764      -306.8835
  13   1.0000     -11.260184      -306.4052
  14   1.0000     -11.255971      -306.2905
  15   1.0000     -11.249405      -306.1119
  16   1.0000     -11.249043      -306.1020
  17   1.0000     -10.502557      -285.7891
  18   1.0000     -10.499393      -285.7030
  19   1.0000     -10.499299      -285.7004
  20   1.0000      -7.968433      -216.8321
  21   1.0000      -7.967879      -216.8170
  22   1.0000      -7.967805      -216.8150
  23   1.0000      -7.965352      -216.7483
  24   1.0000      -7.965242      -216.7453
  25   1.0000      -7.964659      -216.7294
  26   1.0000      -7.964561      -216.7267
  27   1.0000      -7.964539      -216.7261
  28   1.0000      -7.964457      -216.7239
  29   1.0000      -4.133025      -112.4653
  30   1.0000      -2.654825       -72.2414
  31   1.0000      -2.654757       -72.2396
  32   1.0000      -2.653915       -72.2167
  33   1.0000      -1.389999       -37.8238
  34   1.0000      -1.176905       -32.0252
  35   1.0000      -1.079737       -29.3811
  36   1.0000      -1.042773       -28.3753
  37   1.0000      -1.033861       -28.1328
  38   1.0000      -1.022328       -27.8190
  39   1.0000      -1.020407       -27.7667
  40   1.0000      -1.000738       -27.2315
  41   1.0000      -0.981382       -26.7047
  42   1.0000      -0.925885       -25.1946
  43   1.0000      -0.801510       -21.8102
  44   1.0000      -0.767648       -20.8888
  45   1.0000      -0.697776       -18.9875
  46   1.0000      -0.690360       -18.7857
  47   1.0000      -0.672884       -18.3101
  48   1.0000      -0.661553       -18.0018
  49   1.0000      -0.651504       -17.7283
  50   1.0000      -0.626284       -17.0421
  51   1.0000      -0.599086       -16.3020
  52   1.0000      -0.597294       -16.2532
  53   1.0000      -0.588346       -16.0097
  54   1.0000      -0.576760       -15.6944
  55   1.0000      -0.574178       -15.6242
  56   1.0000      -0.565662       -15.3924
  57   1.0000      -0.555066       -15.1041
  58   1.0000      -0.544454       -14.8154
  59   1.0000      -0.529060       -14.3965
  60   1.0000      -0.522456       -14.2168
  61   1.0000      -0.505189       -13.7469
  62   1.0000      -0.474066       -12.9000
  63   1.0000      -0.467338       -12.7169
  64   1.0000      -0.462138       -12.5754
  65   1.0000      -0.438413       -11.9298
  66   1.0000      -0.435195       -11.8423
  67   1.0000      -0.433288       -11.7904
  68   1.0000      -0.423275       -11.5179
  69   1.0000      -0.412931       -11.2364
  70   1.0000      -0.399670       -10.8756
  71   1.0000      -0.386725       -10.5233
  72   0.0000       0.007439         0.2024
  73   0.0000       0.018515         0.5038
  74   0.0000       0.020259         0.5513
  75   0.0000       0.021633         0.5887
  76   0.0000       0.030401         0.8272

E(0)                                       ...  -3028.426461993
E(0)                                       ...  -3028.426461993
E(CORR)(strong-pairs)                      ...     -2.875230002
E(CORR)(weak-pairs)                        ...     -0.036216297
E(CORR)(corrected)                         ...     -2.911446299
E(TOT)                                     ...  -3031.337908292
E(CCSD(T))                                 ...  -3031.458236904
FINAL SINGLE POINT ENERGY     -3031.458236903851

DIPOLE MOMENT
-------------
                                X             Y             Z
Electronic contribution:     41.62867       6.32797       0.06033
Nuclear contribution   :    -46.51211      -6.80270      -0.35671
                        -----------------------------------------
Total Dipole Moment    :     -4.88344      -0.47473      -0.29638
                        -----------------------------------------
Magnitude (a.u.)       :      4.91540
Magnitude (Debye)      :     12.49396

Rotational constants in cm-1:     0.019319     0.010908     0.010312
Rotational constants in MHz :   579.176752   327.000157   309.159413

                             ****ORCA TERMINATED NORMALLY****
TOTAL RUN TIME: 0 days 21 hours 23 minutes 25 seconds 634 msec
