                         Program Version 4.1.2  - RELEASE  -
|  1> ! aug-cc-pVTZ aug-cc-pVTZ/C DLPNO-CCSD(T1) TightSCF NormalPNO UNO MiniPrint AutoAux
|  2> %pal nproc 10 end
|  3> %maxcore 20000
|  4> %mdci
|  5>      density none
|  6> end
|  7>
|  8> * xyz 0 6
|  9>  O     -0.43944700     -0.14943000     -0.51330200
| 10>  C     -1.49376100     -1.15625300     -0.31794900
| 11>  C     -2.71911700     -0.12875400     -0.26549000
| 12>  C     -1.87156400      1.14903800     -0.25737500
| 13>  C     -1.79969500      1.96787000     -1.49773000
| 14> Fe      1.37502600      0.02603800      0.02809600
| 15> Cl      1.89437700      1.97402100     -0.86495200
| 16>  C     -1.54756500      1.82983700      1.02633400
| 17> Cl      2.37845100     -1.75335200     -0.75917700
| 18> Cl      1.41065800      0.13619900      2.23147500
| 19>  H     -3.25166000     -0.17951300     -1.22073300
| 20>  H     -2.41813700      2.44682000      1.29663300
| 21>  H     -1.35855400      1.13209400      1.84190900
| 22>  H     -0.68644400      2.49245800      0.91197100
| 23>  H     -2.63628900      2.68373100     -1.47098300
| 24>  H     -0.86550500      2.53407600     -1.53822900
| 25>  H     -1.90073700      1.35445000     -2.39457300
| 26>  C     -3.72852000     -0.27923800      0.86863000
| 27>  H     -4.48871800      0.50846300      0.82155900
| 28>  H     -4.24553800     -1.23964000      0.77847500
| 29>  H     -3.26125000     -0.24277000      1.85548700
| 30>  C     -1.25275200     -1.94226600      0.96080500
| 31>  H     -2.07208700     -2.64663200      1.13812700
| 32>  H     -0.32669300     -2.51806800      0.86249000
| 33>  H     -1.14787000     -1.29291300      1.83206400
| 34>  C     -1.52333900     -2.05988300     -1.53911000
| 35>  H     -0.57689100     -2.60375800     -1.61910900
| 36>  H     -2.34029900     -2.78647800     -1.46054800
| 37>  H     -1.65982500     -1.47272500     -2.45220400
| 38> *
| 39>
| 40>
| 41>                          ****END OF INPUT****

CARTESIAN COORDINATES (ANGSTROEM)
---------------------------------
  O     -0.439447   -0.149430   -0.513302
  C     -1.493761   -1.156253   -0.317949
  C     -2.719117   -0.128754   -0.265490
  C     -1.871564    1.149038   -0.257375
  C     -1.799695    1.967870   -1.497730
  Fe     1.375026    0.026038    0.028096
  Cl     1.894377    1.974021   -0.864952
  C     -1.547565    1.829837    1.026334
  Cl     2.378451   -1.753352   -0.759177
  Cl     1.410658    0.136199    2.231475
  H     -3.251660   -0.179513   -1.220733
  H     -2.418137    2.446820    1.296633
  H     -1.358554    1.132094    1.841909
  H     -0.686444    2.492458    0.911971
  H     -2.636289    2.683731   -1.470983
  H     -0.865505    2.534076   -1.538229
  H     -1.900737    1.354450   -2.394573
  C     -3.728520   -0.279238    0.868630
  H     -4.488718    0.508463    0.821559
  H     -4.245538   -1.239640    0.778475
  H     -3.261250   -0.242770    1.855487
  C     -1.252752   -1.942266    0.960805
  H     -2.072087   -2.646632    1.138127
  H     -0.326693   -2.518068    0.862490
  H     -1.147870   -1.292913    1.832064
  C     -1.523339   -2.059883   -1.539110
  H     -0.576891   -2.603758   -1.619109
  H     -2.340299   -2.786478   -1.460548
  H     -1.659825   -1.472725   -2.452204

ORBITAL ENERGIES
----------------
                 SPIN UP ORBITALS
  NO   OCC          E(Eh)            E(eV)
   0   1.0000    -261.553952     -7117.2449
   1   1.0000    -104.779914     -2851.2064
   2   1.0000    -104.778177     -2851.1592
   3   1.0000    -104.776748     -2851.1203
   4   1.0000     -32.221880      -876.8019
   5   1.0000     -27.697916      -753.6986
   6   1.0000     -27.697501      -753.6873
   7   1.0000     -27.697233      -753.6800
   8   1.0000     -20.575579      -559.8900
   9   1.0000     -11.395917      -310.0987
  10   1.0000     -11.332091      -308.3619
  11   1.0000     -11.289589      -307.2053
  12   1.0000     -11.273496      -306.7674
  13   1.0000     -11.272930      -306.7520
  14   1.0000     -11.262252      -306.4615
  15   1.0000     -11.236843      -305.7700
  16   1.0000     -11.236472      -305.7600
  17   1.0000     -10.506553      -285.8979
  18   1.0000     -10.504896      -285.8527
  19   1.0000     -10.503400      -285.8120
  20   1.0000      -7.973379      -216.9667
  21   1.0000      -7.972648      -216.9468
  22   1.0000      -7.972573      -216.9447
  23   1.0000      -7.971771      -216.9229
  24   1.0000      -7.970945      -216.9004
  25   1.0000      -7.970923      -216.8998
  26   1.0000      -7.970199      -216.8802
  27   1.0000      -7.969520      -216.8617
  28   1.0000      -7.969451      -216.8598
  29   1.0000      -4.577188      -124.5516
  30   1.0000      -3.189675       -86.7955
  31   1.0000      -3.189232       -86.7834
  32   1.0000      -3.188724       -86.7696
  33   1.0000      -1.365293       -37.1515
  34   1.0000      -1.160590       -31.5813
  35   1.0000      -1.096083       -29.8259
  36   1.0000      -1.052064       -28.6281
  37   1.0000      -1.046458       -28.4756
  38   1.0000      -1.044691       -28.4275
  39   1.0000      -1.033419       -28.1208
  40   1.0000      -1.006991       -27.4016
  41   1.0000      -0.965356       -26.2687
  42   1.0000      -0.935260       -25.4497
  43   1.0000      -0.906627       -24.6706
  44   1.0000      -0.906407       -24.6646
  45   1.0000      -0.903386       -24.5824
  46   1.0000      -0.897707       -24.4279
  47   1.0000      -0.897028       -24.4094
  48   1.0000      -0.804330       -21.8869
  49   1.0000      -0.756261       -20.5789
  50   1.0000      -0.695389       -18.9225
  51   1.0000      -0.689621       -18.7655
  52   1.0000      -0.670785       -18.2530
  53   1.0000      -0.634607       -17.2685
  54   1.0000      -0.631104       -17.1732
  55   1.0000      -0.616793       -16.7838
  56   1.0000      -0.600358       -16.3366
  57   1.0000      -0.593543       -16.1511
  58   1.0000      -0.588656       -16.0181
  59   1.0000      -0.583805       -15.8861
  60   1.0000      -0.569330       -15.4923
  61   1.0000      -0.559835       -15.2339
  62   1.0000      -0.542894       -14.7729
  63   1.0000      -0.534742       -14.5511
  64   1.0000      -0.529514       -14.4088
  65   1.0000      -0.518236       -14.1019
  66   1.0000      -0.504295       -13.7226
  67   1.0000      -0.478863       -13.0305
  68   1.0000      -0.471704       -12.8357
  69   1.0000      -0.458023       -12.4634
  70   1.0000      -0.450461       -12.2577
  71   1.0000      -0.430637       -11.7182
  72   1.0000      -0.426615       -11.6088
  73   1.0000      -0.423212       -11.5162
  74   1.0000      -0.419082       -11.4038
  75   1.0000      -0.416804       -11.3418
  76   1.0000      -0.415997       -11.3199
  77   0.0000       0.008684         0.2363
  78   0.0000       0.020817         0.5665
  79   0.0000       0.022996         0.6258
  80   0.0000       0.030935         0.8418
  81   0.0000       0.037894         1.0312

                 SPIN DOWN ORBITALS
  NO   OCC          E(Eh)            E(eV)
   0   1.0000    -261.550398     -7117.1482
   1   1.0000    -104.778532     -2851.1688
   2   1.0000    -104.776754     -2851.1204
   3   1.0000    -104.775268     -2851.0800
   4   1.0000     -32.059910      -872.3945
   5   1.0000     -27.537915      -749.3448
   6   1.0000     -27.537774      -749.3409
   7   1.0000     -27.537409      -749.3310
   8   1.0000     -20.570593      -559.7543
   9   1.0000     -11.395950      -310.0996
  10   1.0000     -11.331912      -308.3570
  11   1.0000     -11.289514      -307.2033
  12   1.0000     -11.273480      -306.7670
  13   1.0000     -11.272939      -306.7523
  14   1.0000     -11.262232      -306.4609
  15   1.0000     -11.236816      -305.7693
  16   1.0000     -11.236465      -305.7598
  17   1.0000     -10.505072      -285.8575
  18   1.0000     -10.503368      -285.8112
  19   1.0000     -10.501818      -285.7690
  20   1.0000      -7.971028      -216.9027
  21   1.0000      -7.970359      -216.8845
  22   1.0000      -7.970295      -216.8828
  23   1.0000      -7.969271      -216.8549
  24   1.0000      -7.968650      -216.8380
  25   1.0000      -7.968594      -216.8365
  26   1.0000      -7.967795      -216.8147
  27   1.0000      -7.966997      -216.7930
  28   1.0000      -7.966947      -216.7917
  29   1.0000      -4.135122      -112.5224
  30   1.0000      -2.657009       -72.3009
  31   1.0000      -2.656905       -72.2981
  32   1.0000      -2.655894       -72.2706
  33   1.0000      -1.352581       -36.8056
  34   1.0000      -1.158362       -31.5206
  35   1.0000      -1.093833       -29.7647
  36   1.0000      -1.037191       -28.2234
  37   1.0000      -1.032351       -28.0917
  38   1.0000      -1.025909       -27.9164
  39   1.0000      -1.023778       -27.8584
  40   1.0000      -1.006668       -27.3928
  41   1.0000      -0.964644       -26.2493
  42   1.0000      -0.927465       -25.2376
  43   1.0000      -0.805879       -21.9291
  44   1.0000      -0.759758       -20.6741
  45   1.0000      -0.695410       -18.9231
  46   1.0000      -0.689455       -18.7610
  47   1.0000      -0.671698       -18.2778
  48   1.0000      -0.635108       -17.2822
  49   1.0000      -0.631067       -17.1722
  50   1.0000      -0.615509       -16.7488
  51   1.0000      -0.600329       -16.3358
  52   1.0000      -0.592711       -16.1285
  53   1.0000      -0.588412       -16.0115
  54   1.0000      -0.582419       -15.8484
  55   1.0000      -0.569177       -15.4881
  56   1.0000      -0.559280       -15.2188
  57   1.0000      -0.537776       -14.6336
  58   1.0000      -0.534472       -14.5437
  59   1.0000      -0.527304       -14.3487
  60   1.0000      -0.512392       -13.9429
  61   1.0000      -0.504906       -13.7392
  62   1.0000      -0.475945       -12.9511
  63   1.0000      -0.471798       -12.8383
  64   1.0000      -0.466167       -12.6851
  65   1.0000      -0.456656       -12.4263
  66   1.0000      -0.441452       -12.0125
  67   1.0000      -0.438084       -11.9209
  68   1.0000      -0.435785       -11.8583
  69   1.0000      -0.417603       -11.3636
  70   1.0000      -0.412640       -11.2285
  71   1.0000      -0.402888       -10.9631
  72   0.0000       0.008670         0.2359
  73   0.0000       0.020741         0.5644
  74   0.0000       0.022975         0.6252
  75   0.0000       0.030977         0.8429
  76   0.0000       0.037900         1.0313

E(0)                                       ...  -3028.450173408
E(0)                                       ...  -3028.450173408
E(CORR)(strong-pairs)                      ...     -2.875865168
E(CORR)(weak-pairs)                        ...     -0.035086072
E(CORR)(corrected)                         ...     -2.910951240
E(TOT)                                     ...  -3031.361124648
E(CCSD(T))                                 ...  -3031.479967892
FINAL SINGLE POINT ENERGY     -3031.479967891929

DIPOLE MOMENT
-------------
                                X             Y             Z
Electronic contribution:     40.49765       2.86301       1.41681
Nuclear contribution   :    -44.93459      -2.35385      -1.73643
                        -----------------------------------------
Total Dipole Moment    :     -4.43694       0.50916      -0.31962
                        -----------------------------------------
Magnitude (a.u.)       :      4.47748
Magnitude (Debye)      :     11.38086

Rotational constants in cm-1:     0.019050     0.012126     0.010807
Rotational constants in MHz :   571.097122   363.525663   323.993674

                             ****ORCA TERMINATED NORMALLY****
TOTAL RUN TIME: 1 days 3 hours 10 minutes 7 seconds 700 msec
