                         Program Version 4.1.2  - RELEASE  -
|  1> ! aug-cc-pVTZ aug-cc-pVTZ/C DLPNO-CCSD(T1) TightSCF NormalPNO UNO MiniPrint AutoAux
|  2> %pal nproc 10 end
|  3> %maxcore 20000
|  4> %mdci
|  5>      density none
|  6> end
|  7>
|  8> * xyz 0 6
|  9>  O     -0.33568700     -0.14973200     -0.68014700
| 10>  C     -1.28461200     -1.08165700     -0.55289400
| 11>  C     -2.78275800     -0.26107200      0.27909100
| 12>  C     -2.36572500      1.01055700     -0.13918400
| 13>  C     -2.68957800      1.54596800     -1.48620900
| 14> Fe      1.39001600      0.09567200     -0.00224700
| 15> Cl      1.91943500      2.10984500     -0.72759500
| 16>  C     -1.56762600      1.90513700      0.72986700
| 17> Cl      2.62207600     -1.56441600     -0.75101200
| 18> Cl      1.18720400      0.04343600      2.22043600
| 19>  H     -3.59070800     -0.68723800     -0.31378700
| 20>  H     -2.28919000      2.57399100      1.22900100
| 21>  H     -1.01423400      1.38018700      1.50753000
| 22>  H     -0.88325700      2.52852400      0.14808500
| 23>  H     -3.03597900      2.58217200     -1.38660900
| 24>  H     -1.75652300      1.58965600     -2.06455100
| 25>  H     -3.43839400      0.96288600     -2.02319400
| 26>  C     -2.86886700     -0.58504800      1.76148500
| 27>  H     -3.66931000      0.00495300      2.22342400
| 28>  H     -3.11075800     -1.63926000      1.91065400
| 29>  H     -1.94111400     -0.37255000      2.29668400
| 30>  C     -0.94340900     -2.23856500      0.37022400
| 31>  H     -1.77132700     -2.94343100      0.47735300
| 32>  H     -0.10274900     -2.75871100     -0.10740400
| 33>  H     -0.60347400     -1.90153600      1.34900300
| 34>  C     -1.81450300     -1.55555800     -1.90008200
| 35>  H     -0.98854100     -2.09281100     -2.38070600
| 36>  H     -2.66177500     -2.23863000     -1.79526700
| 37>  H     -2.08327300     -0.72708600     -2.55549000
| 38> *
| 39>
| 40>
| 41>                          ****END OF INPUT****

CARTESIAN COORDINATES (ANGSTROEM)
---------------------------------
  O     -0.335687   -0.149732   -0.680147
  C     -1.284612   -1.081657   -0.552894
  C     -2.782758   -0.261072    0.279091
  C     -2.365725    1.010557   -0.139184
  C     -2.689578    1.545968   -1.486209
  Fe     1.390016    0.095672   -0.002247
  Cl     1.919435    2.109845   -0.727595
  C     -1.567626    1.905137    0.729867
  Cl     2.622076   -1.564416   -0.751012
  Cl     1.187204    0.043436    2.220436
  H     -3.590708   -0.687238   -0.313787
  H     -2.289190    2.573991    1.229001
  H     -1.014234    1.380187    1.507530
  H     -0.883257    2.528524    0.148085
  H     -3.035979    2.582172   -1.386609
  H     -1.756523    1.589656   -2.064551
  H     -3.438394    0.962886   -2.023194
  C     -2.868867   -0.585048    1.761485
  H     -3.669310    0.004953    2.223424
  H     -3.110758   -1.639260    1.910654
  H     -1.941114   -0.372550    2.296684
  C     -0.943409   -2.238565    0.370224
  H     -1.771327   -2.943431    0.477353
  H     -0.102749   -2.758711   -0.107404
  H     -0.603474   -1.901536    1.349003
  C     -1.814503   -1.555558   -1.900082
  H     -0.988541   -2.092811   -2.380706
  H     -2.661775   -2.238630   -1.795267
  H     -2.083273   -0.727086   -2.555490

ORBITAL ENERGIES
----------------
                 SPIN UP ORBITALS
  NO   OCC          E(Eh)            E(eV)
   0   1.0000    -261.549313     -7117.1186
   1   1.0000    -104.776694     -2851.1188
   2   1.0000    -104.773623     -2851.0352
   3   1.0000    -104.771816     -2850.9861
   4   1.0000     -32.217215      -876.6750
   5   1.0000     -27.693116      -753.5680
   6   1.0000     -27.692927      -753.5629
   7   1.0000     -27.692677      -753.5561
   8   1.0000     -20.549203      -559.1722
   9   1.0000     -11.377260      -309.5910
  10   1.0000     -11.375076      -309.5316
  11   1.0000     -11.282447      -307.0110
  12   1.0000     -11.281469      -306.9844
  13   1.0000     -11.266466      -306.5761
  14   1.0000     -11.256515      -306.3053
  15   1.0000     -11.251513      -306.1692
  16   1.0000     -11.243043      -305.9388
  17   1.0000     -10.503274      -285.8086
  18   1.0000     -10.500176      -285.7243
  19   1.0000     -10.498395      -285.6759
  20   1.0000      -7.970173      -216.8794
  21   1.0000      -7.969288      -216.8554
  22   1.0000      -7.969247      -216.8542
  23   1.0000      -7.966994      -216.7929
  24   1.0000      -7.966274      -216.7733
  25   1.0000      -7.966190      -216.7711
  26   1.0000      -7.965224      -216.7448
  27   1.0000      -7.964497      -216.7250
  28   1.0000      -7.964422      -216.7229
  29   1.0000      -4.572599      -124.4267
  30   1.0000      -3.185119       -86.6715
  31   1.0000      -3.184699       -86.6601
  32   1.0000      -3.184212       -86.6468
  33   1.0000      -1.388051       -37.7708
  34   1.0000      -1.183234       -32.1974
  35   1.0000      -1.084513       -29.5111
  36   1.0000      -1.047018       -28.4908
  37   1.0000      -1.044082       -28.4109
  38   1.0000      -1.041328       -28.3360
  39   1.0000      -1.038886       -28.2695
  40   1.0000      -1.005637       -27.3648
  41   1.0000      -0.977716       -26.6050
  42   1.0000      -0.933533       -25.4027
  43   1.0000      -0.913730       -24.8638
  44   1.0000      -0.902119       -24.5479
  45   1.0000      -0.901980       -24.5441
  46   1.0000      -0.893629       -24.3169
  47   1.0000      -0.893018       -24.3003
  48   1.0000      -0.786307       -21.3965
  49   1.0000      -0.766010       -20.8442
  50   1.0000      -0.702488       -19.1157
  51   1.0000      -0.692383       -18.8407
  52   1.0000      -0.673083       -18.3155
  53   1.0000      -0.651819       -17.7369
  54   1.0000      -0.646646       -17.5961
  55   1.0000      -0.626967       -17.0606
  56   1.0000      -0.599283       -16.3073
  57   1.0000      -0.597206       -16.2508
  58   1.0000      -0.590643       -16.0722
  59   1.0000      -0.579066       -15.7572
  60   1.0000      -0.577767       -15.7218
  61   1.0000      -0.561330       -15.2746
  62   1.0000      -0.556167       -15.1341
  63   1.0000      -0.546700       -14.8765
  64   1.0000      -0.535908       -14.5828
  65   1.0000      -0.528657       -14.3855
  66   1.0000      -0.511102       -13.9078
  67   1.0000      -0.473364       -12.8809
  68   1.0000      -0.461145       -12.5484
  69   1.0000      -0.451270       -12.2797
  70   1.0000      -0.426577       -11.6078
  71   1.0000      -0.425482       -11.5779
  72   1.0000      -0.423140       -11.5142
  73   1.0000      -0.414327       -11.2744
  74   1.0000      -0.413275       -11.2458
  75   1.0000      -0.411854       -11.2071
  76   1.0000      -0.395023       -10.7491
  77   0.0000       0.007355         0.2001
  78   0.0000       0.018489         0.5031
  79   0.0000       0.020673         0.5625
  80   0.0000       0.022873         0.6224
  81   0.0000       0.030731         0.8362

                 SPIN DOWN ORBITALS
  NO   OCC          E(Eh)            E(eV)
   0   1.0000    -261.545769     -7117.0222
   1   1.0000    -104.775375     -2851.0829
   2   1.0000    -104.772267     -2850.9983
   3   1.0000    -104.770378     -2850.9469
   4   1.0000     -32.055152      -872.2650
   5   1.0000     -27.533224      -749.2171
   6   1.0000     -27.533074      -749.2130
   7   1.0000     -27.532572      -749.1994
   8   1.0000     -20.543698      -559.0225
   9   1.0000     -11.377218      -309.5899
  10   1.0000     -11.375051      -309.5309
  11   1.0000     -11.282447      -307.0110
  12   1.0000     -11.281245      -306.9783
  13   1.0000     -11.266496      -306.5770
  14   1.0000     -11.256538      -306.3060
  15   1.0000     -11.251402      -306.1662
  16   1.0000     -11.243007      -305.9378
  17   1.0000     -10.501853      -285.7699
  18   1.0000     -10.498723      -285.6848
  19   1.0000     -10.496856      -285.6340
  20   1.0000      -7.967697      -216.8121
  21   1.0000      -7.967259      -216.8001
  22   1.0000      -7.967178      -216.7979
  23   1.0000      -7.964698      -216.7304
  24   1.0000      -7.964027      -216.7122
  25   1.0000      -7.963937      -216.7098
  26   1.0000      -7.962806      -216.6790
  27   1.0000      -7.962100      -216.6598
  28   1.0000      -7.962025      -216.6577
  29   1.0000      -4.130312      -112.3915
  30   1.0000      -2.652124       -72.1680
  31   1.0000      -2.652077       -72.1667
  32   1.0000      -2.651216       -72.1433
  33   1.0000      -1.373910       -37.3860
  34   1.0000      -1.182226       -32.1700
  35   1.0000      -1.081867       -29.4391
  36   1.0000      -1.042831       -28.3769
  37   1.0000      -1.033061       -28.1110
  38   1.0000      -1.021644       -27.8003
  39   1.0000      -1.018578       -27.7169
  40   1.0000      -1.005334       -27.3565
  41   1.0000      -0.976899       -26.5828
  42   1.0000      -0.931870       -25.3575
  43   1.0000      -0.796021       -21.6608
  44   1.0000      -0.769177       -20.9304
  45   1.0000      -0.702905       -19.1270
  46   1.0000      -0.691492       -18.8164
  47   1.0000      -0.674375       -18.3507
  48   1.0000      -0.653515       -17.7830
  49   1.0000      -0.644950       -17.5500
  50   1.0000      -0.626435       -17.0462
  51   1.0000      -0.598675       -16.2908
  52   1.0000      -0.596890       -16.2422
  53   1.0000      -0.590594       -16.0709
  54   1.0000      -0.578767       -15.7491
  55   1.0000      -0.577286       -15.7088
  56   1.0000      -0.560885       -15.2624
  57   1.0000      -0.555839       -15.1252
  58   1.0000      -0.545997       -14.8573
  59   1.0000      -0.530079       -14.4242
  60   1.0000      -0.528324       -14.3764
  61   1.0000      -0.502973       -13.6866
  62   1.0000      -0.471993       -12.8436
  63   1.0000      -0.465354       -12.6629
  64   1.0000      -0.459815       -12.5122
  65   1.0000      -0.436633       -11.8814
  66   1.0000      -0.433568       -11.7980
  67   1.0000      -0.432109       -11.7583
  68   1.0000      -0.422742       -11.5034
  69   1.0000      -0.411906       -11.2085
  70   1.0000      -0.399380       -10.8677
  71   1.0000      -0.389119       -10.5885
  72   0.0000       0.007354         0.2001
  73   0.0000       0.018366         0.4998
  74   0.0000       0.020657         0.5621
  75   0.0000       0.022731         0.6185
  76   0.0000       0.030742         0.8365

E(0)                                       ...  -3028.424523361
E(0)                                       ...  -3028.424523361
E(CORR)(strong-pairs)                      ...     -2.872501528
E(CORR)(weak-pairs)                        ...     -0.036105059
E(CORR)(corrected)                         ...     -2.908606587
E(TOT)                                     ...  -3031.333129948
E(CCSD(T))                                 ...  -3031.452353285
FINAL SINGLE POINT ENERGY     -3031.452353284937

DIPOLE MOMENT
-------------
                                X             Y             Z
Electronic contribution:     39.95097       4.81444       1.97793
Nuclear contribution   :    -44.76552      -4.76924      -2.45576
                        -----------------------------------------
Total Dipole Moment    :     -4.81456       0.04520      -0.47782
                        -----------------------------------------
Magnitude (a.u.)       :      4.83842
Magnitude (Debye)      :     12.29829

Rotational constants in cm-1:     0.019076     0.011652     0.010829
Rotational constants in MHz :   571.891096   349.328095   324.639320

                             ****ORCA TERMINATED NORMALLY****
TOTAL RUN TIME: 0 days 20 hours 28 minutes 44 seconds 104 msec
