                         Program Version 4.1.2  - RELEASE  -
|  1> ! aug-cc-pVTZ aug-cc-pVTZ/C DLPNO-CCSD(T1) TightSCF NormalPNO UNO MiniPrint AutoAux
|  2> %pal nproc 10 end
|  3> %maxcore 20000
|  4> %mdci
|  5>      density none
|  6> end
|  7>
|  8> * xyz 0 6
|  9>  O     -0.28541200     -0.23446400     -0.73773200
| 10>  C     -1.08196100     -1.20087800     -0.61519800
| 11>  C     -3.22110200      0.02199400      0.21465400
| 12>  C     -2.43772100      1.03191300     -0.22167200
| 13>  C     -2.49387000      1.51031700     -1.64478600
| 14> Fe      1.47324900      0.10774100      0.05403900
| 15> Cl      2.10628300      1.97925900     -0.86237200
| 16>  C     -1.56978400      1.86168700      0.67937700
| 17> Cl      2.54209200     -1.69525100     -0.59021200
| 18> Cl      1.27746500      0.19051500      2.23833800
| 19>  H     -3.88662400     -0.44325700     -0.51194400
| 20>  H     -2.11749900      2.77181400      0.96112200
| 21>  H     -1.27619800      1.35453900      1.59891800
| 22>  H     -0.66486700      2.19260500      0.16057600
| 23>  H     -2.78347900      2.56902800     -1.66242800
| 24>  H     -1.50416700      1.45037100     -2.11304000
| 25>  H     -3.21835400      0.95513200     -2.24744900
| 26>  C     -3.44711800     -0.38632100      1.64433800
| 27>  H     -4.35717600      0.09275200      2.03079600
| 28>  H     -3.59978500     -1.46681500      1.73944500
| 29>  H     -2.62554000     -0.09960400      2.30561100
| 30>  C     -1.01641900     -2.09039900      0.58605900
| 31>  H     -1.91182900     -2.70186500      0.69843600
| 32>  H     -0.15844000     -2.75925000      0.41815500
| 33>  H     -0.81168800     -1.52543400      1.49595400
| 34>  C     -1.76092600     -1.71332300     -1.84930200
| 35>  H     -1.05834400     -2.43429100     -2.29394200
| 36>  H     -2.68977700     -2.23987100     -1.62640700
| 37>  H     -1.92326700     -0.91822300     -2.57559900
| 38> *
| 39>
| 40>
| 41>                          ****END OF INPUT****

CARTESIAN COORDINATES (ANGSTROEM)
---------------------------------
  O     -0.285412   -0.234464   -0.737732
  C     -1.081961   -1.200878   -0.615198
  C     -3.221102    0.021994    0.214654
  C     -2.437721    1.031913   -0.221672
  C     -2.493870    1.510317   -1.644786
  Fe     1.473249    0.107741    0.054039
  Cl     2.106283    1.979259   -0.862372
  C     -1.569784    1.861687    0.679377
  Cl     2.542092   -1.695251   -0.590212
  Cl     1.277465    0.190515    2.238338
  H     -3.886624   -0.443257   -0.511944
  H     -2.117499    2.771814    0.961122
  H     -1.276198    1.354539    1.598918
  H     -0.664867    2.192605    0.160576
  H     -2.783479    2.569028   -1.662428
  H     -1.504167    1.450371   -2.113040
  H     -3.218354    0.955132   -2.247449
  C     -3.447118   -0.386321    1.644338
  H     -4.357176    0.092752    2.030796
  H     -3.599785   -1.466815    1.739445
  H     -2.625540   -0.099604    2.305611
  C     -1.016419   -2.090399    0.586059
  H     -1.911829   -2.701865    0.698436
  H     -0.158440   -2.759250    0.418155
  H     -0.811688   -1.525434    1.495954
  C     -1.760926   -1.713323   -1.849302
  H     -1.058344   -2.434291   -2.293942
  H     -2.689777   -2.239871   -1.626407
  H     -1.923267   -0.918223   -2.575599

ORBITAL ENERGIES
----------------
                 SPIN UP ORBITALS
  NO   OCC          E(Eh)            E(eV)
   0   1.0000    -261.574995     -7117.8175
   1   1.0000    -104.792332     -2851.5443
   2   1.0000    -104.790215     -2851.4867
   3   1.0000    -104.788874     -2851.4502
   4   1.0000     -32.242687      -877.3681
   5   1.0000     -27.719156      -754.2766
   6   1.0000     -27.718037      -754.2461
   7   1.0000     -27.717876      -754.2418
   8   1.0000     -20.612555      -560.8961
   9   1.0000     -11.422890      -310.8326
  10   1.0000     -11.277372      -306.8729
  11   1.0000     -11.272099      -306.7294
  12   1.0000     -11.271847      -306.7225
  13   1.0000     -11.244411      -305.9760
  14   1.0000     -11.242768      -305.9313
  15   1.0000     -11.240457      -305.8684
  16   1.0000     -11.232332      -305.6473
  17   1.0000     -10.519030      -286.2373
  18   1.0000     -10.516876      -286.1788
  19   1.0000     -10.515486      -286.1409
  20   1.0000      -7.985864      -217.3064
  21   1.0000      -7.985112      -217.2859
  22   1.0000      -7.985062      -217.2846
  23   1.0000      -7.983771      -217.2494
  24   1.0000      -7.982969      -217.2276
  25   1.0000      -7.982893      -217.2256
  26   1.0000      -7.982273      -217.2087
  27   1.0000      -7.981611      -217.1907
  28   1.0000      -7.981560      -217.1893
  29   1.0000      -4.597605      -125.1072
  30   1.0000      -3.210766       -87.3694
  31   1.0000      -3.209018       -87.3218
  32   1.0000      -3.208871       -87.3178
  33   1.0000      -1.462352       -39.7926
  34   1.0000      -1.129401       -30.7326
  35   1.0000      -1.101395       -29.9705
  36   1.0000      -1.065728       -28.9999
  37   1.0000      -1.060205       -28.8496
  38   1.0000      -1.057929       -28.7877
  39   1.0000      -1.022649       -27.8277
  40   1.0000      -1.011660       -27.5287
  41   1.0000      -0.960639       -26.1403
  42   1.0000      -0.942207       -25.6388
  43   1.0000      -0.926634       -25.2150
  44   1.0000      -0.926486       -25.2110
  45   1.0000      -0.915635       -24.9157
  46   1.0000      -0.915440       -24.9104
  47   1.0000      -0.899181       -24.4680
  48   1.0000      -0.812330       -22.1046
  49   1.0000      -0.731481       -19.9046
  50   1.0000      -0.711054       -19.3488
  51   1.0000      -0.702842       -19.1253
  52   1.0000      -0.689670       -18.7669
  53   1.0000      -0.656715       -17.8701
  54   1.0000      -0.623783       -16.9740
  55   1.0000      -0.621438       -16.9102
  56   1.0000      -0.602703       -16.4004
  57   1.0000      -0.600905       -16.3515
  58   1.0000      -0.585564       -15.9340
  59   1.0000      -0.579942       -15.7810
  60   1.0000      -0.559489       -15.2245
  61   1.0000      -0.556189       -15.1347
  62   1.0000      -0.553250       -15.0547
  63   1.0000      -0.539827       -14.6894
  64   1.0000      -0.533120       -14.5069
  65   1.0000      -0.527518       -14.3545
  66   1.0000      -0.501768       -13.6538
  67   1.0000      -0.495397       -13.4804
  68   1.0000      -0.477127       -12.9833
  69   1.0000      -0.474471       -12.9110
  70   1.0000      -0.446134       -12.1399
  71   1.0000      -0.439829       -11.9684
  72   1.0000      -0.438409       -11.9297
  73   1.0000      -0.429832       -11.6963
  74   1.0000      -0.428265       -11.6537
  75   1.0000      -0.427905       -11.6439
  76   1.0000      -0.359411        -9.7801
  77   0.0000       0.012868         0.3502
  78   0.0000       0.023754         0.6464
  79   0.0000       0.024303         0.6613
  80   0.0000       0.030495         0.8298
  81   0.0000       0.039554         1.0763

                 SPIN DOWN ORBITALS
  NO   OCC          E(Eh)            E(eV)
   0   1.0000    -261.571422     -7117.7203
   1   1.0000    -104.790835     -2851.5036
   2   1.0000    -104.788681     -2851.4450
   3   1.0000    -104.787333     -2851.4083
   4   1.0000     -32.080705      -872.9604
   5   1.0000     -27.558642      -749.9088
   6   1.0000     -27.558551      -749.9063
   7   1.0000     -27.558415      -749.9026
   8   1.0000     -20.609053      -560.8009
   9   1.0000     -11.422742      -310.8286
  10   1.0000     -11.277272      -306.8702
  11   1.0000     -11.272096      -306.7293
  12   1.0000     -11.271935      -306.7250
  13   1.0000     -11.244260      -305.9719
  14   1.0000     -11.242777      -305.9315
  15   1.0000     -11.240442      -305.8680
  16   1.0000     -11.232338      -305.6475
  17   1.0000     -10.517431      -286.1939
  18   1.0000     -10.515236      -286.1341
  19   1.0000     -10.513849      -286.0964
  20   1.0000      -7.983350      -217.2380
  21   1.0000      -7.982613      -217.2179
  22   1.0000      -7.982563      -217.2166
  23   1.0000      -7.981099      -217.1768
  24   1.0000      -7.980462      -217.1594
  25   1.0000      -7.980360      -217.1566
  26   1.0000      -7.979841      -217.1425
  27   1.0000      -7.978959      -217.1185
  28   1.0000      -7.978878      -217.1163
  29   1.0000      -4.155492      -113.0767
  30   1.0000      -2.677047       -72.8462
  31   1.0000      -2.676988       -72.8446
  32   1.0000      -2.676607       -72.8342
  33   1.0000      -1.453621       -39.5550
  34   1.0000      -1.129058       -30.7232
  35   1.0000      -1.099048       -29.9066
  36   1.0000      -1.050179       -28.5768
  37   1.0000      -1.037704       -28.2374
  38   1.0000      -1.035565       -28.1791
  39   1.0000      -1.022059       -27.8116
  40   1.0000      -1.011054       -27.5122
  41   1.0000      -0.960465       -26.1356
  42   1.0000      -0.899410       -24.4742
  43   1.0000      -0.825220       -22.4554
  44   1.0000      -0.731538       -19.9062
  45   1.0000      -0.713372       -19.4118
  46   1.0000      -0.702012       -19.1027
  47   1.0000      -0.688895       -18.7458
  48   1.0000      -0.656676       -17.8691
  49   1.0000      -0.623602       -16.9691
  50   1.0000      -0.621048       -16.8996
  51   1.0000      -0.602490       -16.3946
  52   1.0000      -0.600897       -16.3512
  53   1.0000      -0.585238       -15.9251
  54   1.0000      -0.579199       -15.7608
  55   1.0000      -0.558740       -15.2041
  56   1.0000      -0.555608       -15.1189
  57   1.0000      -0.551344       -15.0028
  58   1.0000      -0.539800       -14.6887
  59   1.0000      -0.529226       -14.4010
  60   1.0000      -0.520881       -14.1739
  61   1.0000      -0.502485       -13.6733
  62   1.0000      -0.495232       -13.4759
  63   1.0000      -0.484087       -13.1727
  64   1.0000      -0.482486       -13.1291
  65   1.0000      -0.453241       -12.3333
  66   1.0000      -0.450090       -12.2476
  67   1.0000      -0.447392       -12.1742
  68   1.0000      -0.431238       -11.7346
  69   1.0000      -0.428908       -11.6712
  70   1.0000      -0.412935       -11.2365
  71   1.0000      -0.358629        -9.7588
  72   0.0000       0.012854         0.3498
  73   0.0000       0.023729         0.6457
  74   0.0000       0.024272         0.6605
  75   0.0000       0.030455         0.8287
  76   0.0000       0.039459         1.0737

E(0)                                       ...  -3028.455478227
E(0)                                       ...  -3028.455478227
E(CORR)(strong-pairs)                      ...     -2.868694364
E(CORR)(weak-pairs)                        ...     -0.036152415
E(CORR)(corrected)                         ...     -2.904846778
E(TOT)                                     ...  -3031.360325005
E(CCSD(T))                                 ...  -3031.478568137
FINAL SINGLE POINT ENERGY     -3031.478568136625

DIPOLE MOMENT
-------------
                                X             Y             Z
Electronic contribution:     43.51187       2.95432       2.24489
Nuclear contribution   :    -46.92971      -4.14045      -2.85622
                        -----------------------------------------
Total Dipole Moment    :     -3.41784      -1.18612      -0.61132
                        -----------------------------------------
Magnitude (a.u.)       :      3.66909
Magnitude (Debye)      :      9.32609

Rotational constants in cm-1:     0.019137     0.010831     0.010208
Rotational constants in MHz :   573.722894   324.713191   306.021156

                             ****ORCA TERMINATED NORMALLY****
TOTAL RUN TIME: 0 days 17 hours 42 minutes 37 seconds 38 msec
