                         Program Version 4.1.2  - RELEASE  -
|  1> ! aug-cc-pVTZ aug-cc-pVTZ/C DLPNO-CCSD(T1) TightSCF NormalPNO UNO MiniPrint AutoAux
|  2> %pal nproc 10 end
|  3> %maxcore 20000
|  4> %mdci
|  5>      density none
|  6> end
|  7>
|  8> * xyz 0 6
|  9>  O     -0.32307300     -0.20262300     -0.70025700
| 10>  C     -1.30196800     -1.12450000     -0.52881200
| 11>  C     -2.68216900     -0.32382100      0.30423100
| 12>  C     -2.37938300      0.99812600     -0.12381900
| 13>  C     -2.78644700      1.50504800     -1.45366900
| 14> Fe      1.37830600      0.10381700     -0.02433800
| 15> Cl      1.82790100      2.14280700     -0.75371100
| 16>  C     -1.59825000      1.92701200      0.71389900
| 17> Cl      2.70392900     -1.50301000     -0.72704300
| 18> Cl      1.15648600      0.08221800      2.20574200
| 19>  H     -3.53944900     -0.74916300     -0.21901300
| 20>  H     -2.33963500      2.52670900      1.27165100
| 21>  H     -0.96759000      1.42570900      1.44813600
| 22>  H     -0.99911900      2.61463500      0.11079600
| 23>  H     -3.11686500      2.54726900     -1.37125600
| 24>  H     -1.87573400      1.52474900     -2.07181100
| 25>  H     -3.55325400      0.90376600     -1.94228700
| 26>  C     -2.70989100     -0.59842400      1.80499200
| 27>  H     -3.48538700      0.01016400      2.28385000
| 28>  H     -2.95261500     -1.64655100      1.99004700
| 29>  H     -1.75591900     -0.38238800      2.29004200
| 30>  C     -0.90059800     -2.30264400      0.35040300
| 31>  H     -1.71755700     -3.01670700      0.48574600
| 32>  H     -0.08052800     -2.80650000     -0.17573500
| 33>  H     -0.51936500     -1.98241700      1.31989700
| 34>  C     -1.84268600     -1.60207300     -1.87580800
| 35>  H     -1.02172800     -2.12570800     -2.37715800
| 36>  H     -2.68194400     -2.29436200     -1.75961100
| 37>  H     -2.13771200     -0.77406900     -2.52174500
| 38> *
| 39>
| 40>
| 41>                          ****END OF INPUT****

CARTESIAN COORDINATES (ANGSTROEM)
---------------------------------
  O     -0.323073   -0.202623   -0.700257
  C     -1.301968   -1.124500   -0.528812
  C     -2.682169   -0.323821    0.304231
  C     -2.379383    0.998126   -0.123819
  C     -2.786447    1.505048   -1.453669
  Fe     1.378306    0.103817   -0.024338
  Cl     1.827901    2.142807   -0.753711
  C     -1.598250    1.927012    0.713899
  Cl     2.703929   -1.503010   -0.727043
  Cl     1.156486    0.082218    2.205742
  H     -3.539449   -0.749163   -0.219013
  H     -2.339635    2.526709    1.271651
  H     -0.967590    1.425709    1.448136
  H     -0.999119    2.614635    0.110796
  H     -3.116865    2.547269   -1.371256
  H     -1.875734    1.524749   -2.071811
  H     -3.553254    0.903766   -1.942287
  C     -2.709891   -0.598424    1.804992
  H     -3.485387    0.010164    2.283850
  H     -2.952615   -1.646551    1.990047
  H     -1.755919   -0.382388    2.290042
  C     -0.900598   -2.302644    0.350403
  H     -1.717557   -3.016707    0.485746
  H     -0.080528   -2.806500   -0.175735
  H     -0.519365   -1.982417    1.319897
  C     -1.842686   -1.602073   -1.875808
  H     -1.021728   -2.125708   -2.377158
  H     -2.681944   -2.294362   -1.759611
  H     -2.137712   -0.774069   -2.521745

ORBITAL ENERGIES
----------------
                 SPIN UP ORBITALS
  NO   OCC          E(Eh)            E(eV)
   0   1.0000    -261.544782     -7116.9953
   1   1.0000    -104.774407     -2851.0566
   2   1.0000    -104.770976     -2850.9632
   3   1.0000    -104.768304     -2850.8905
   4   1.0000     -32.212690      -876.5519
   5   1.0000     -27.688604      -753.4452
   6   1.0000     -27.688398      -753.4396
   7   1.0000     -27.688151      -753.4329
   8   1.0000     -20.540742      -558.9420
   9   1.0000     -11.394644      -310.0640
  10   1.0000     -11.361062      -309.1502
  11   1.0000     -11.291790      -307.2652
  12   1.0000     -11.286718      -307.1272
  13   1.0000     -11.274603      -306.7975
  14   1.0000     -11.256736      -306.3114
  15   1.0000     -11.245527      -306.0064
  16   1.0000     -11.236333      -305.7562
  17   1.0000     -10.500968      -285.7459
  18   1.0000     -10.497512      -285.6518
  19   1.0000     -10.494868      -285.5799
  20   1.0000      -7.967878      -216.8170
  21   1.0000      -7.966967      -216.7922
  22   1.0000      -7.966927      -216.7911
  23   1.0000      -7.964340      -216.7207
  24   1.0000      -7.963607      -216.7008
  25   1.0000      -7.963513      -216.6982
  26   1.0000      -7.961680      -216.6483
  27   1.0000      -7.960978      -216.6292
  28   1.0000      -7.960898      -216.6270
  29   1.0000      -4.568131      -124.3052
  30   1.0000      -3.180616       -86.5490
  31   1.0000      -3.180258       -86.5392
  32   1.0000      -3.179815       -86.5272
  33   1.0000      -1.372610       -37.3506
  34   1.0000      -1.192462       -32.4485
  35   1.0000      -1.086319       -29.5602
  36   1.0000      -1.044554       -28.4238
  37   1.0000      -1.043550       -28.3964
  38   1.0000      -1.038225       -28.2515
  39   1.0000      -1.035278       -28.1713
  40   1.0000      -1.014183       -27.5973
  41   1.0000      -0.971299       -26.4304
  42   1.0000      -0.934508       -25.4293
  43   1.0000      -0.908805       -24.7298
  44   1.0000      -0.897732       -24.4285
  45   1.0000      -0.897577       -24.4243
  46   1.0000      -0.889730       -24.2108
  47   1.0000      -0.888988       -24.1906
  48   1.0000      -0.791716       -21.5437
  49   1.0000      -0.765218       -20.8227
  50   1.0000      -0.708677       -19.2841
  51   1.0000      -0.692066       -18.8321
  52   1.0000      -0.675756       -18.3882
  53   1.0000      -0.647266       -17.6130
  54   1.0000      -0.641403       -17.4535
  55   1.0000      -0.628425       -17.1003
  56   1.0000      -0.604184       -16.4407
  57   1.0000      -0.595939       -16.2163
  58   1.0000      -0.594771       -16.1845
  59   1.0000      -0.583106       -15.8671
  60   1.0000      -0.577020       -15.7015
  61   1.0000      -0.558543       -15.1987
  62   1.0000      -0.556920       -15.1546
  63   1.0000      -0.541750       -14.7418
  64   1.0000      -0.532048       -14.4778
  65   1.0000      -0.527685       -14.3590
  66   1.0000      -0.506752       -13.7894
  67   1.0000      -0.468316       -12.7435
  68   1.0000      -0.459224       -12.4961
  69   1.0000      -0.446832       -12.1589
  70   1.0000      -0.425205       -11.5704
  71   1.0000      -0.422709       -11.5025
  72   1.0000      -0.420471       -11.4416
  73   1.0000      -0.411711       -11.2032
  74   1.0000      -0.410821       -11.1790
  75   1.0000      -0.408794       -11.1238
  76   1.0000      -0.403815       -10.9884
  77   0.0000       0.005103         0.1389
  78   0.0000       0.009644         0.2624
  79   0.0000       0.019204         0.5226
  80   0.0000       0.019771         0.5380
  81   0.0000       0.030246         0.8230

                 SPIN DOWN ORBITALS
  NO   OCC          E(Eh)            E(eV)
   0   1.0000    -261.541240     -7116.8990
   1   1.0000    -104.773121     -2851.0216
   2   1.0000    -104.769655     -2850.9272
   3   1.0000    -104.766881     -2850.8518
   4   1.0000     -32.050626      -872.1419
   5   1.0000     -27.528747      -749.0953
   6   1.0000     -27.528562      -749.0903
   7   1.0000     -27.527986      -749.0746
   8   1.0000     -20.534820      -558.7809
   9   1.0000     -11.394647      -310.0641
  10   1.0000     -11.360955      -309.1473
  11   1.0000     -11.291787      -307.2651
  12   1.0000     -11.286533      -307.1222
  13   1.0000     -11.274630      -306.7983
  14   1.0000     -11.256753      -306.3118
  15   1.0000     -11.245417      -306.0033
  16   1.0000     -11.236293      -305.7551
  17   1.0000     -10.499578      -285.7080
  18   1.0000     -10.496094      -285.6133
  19   1.0000     -10.493345      -285.5384
  20   1.0000      -7.965404      -216.7497
  21   1.0000      -7.965022      -216.7393
  22   1.0000      -7.964941      -216.7371
  23   1.0000      -7.962062      -216.6587
  24   1.0000      -7.961438      -216.6417
  25   1.0000      -7.961346      -216.6392
  26   1.0000      -7.959319      -216.5841
  27   1.0000      -7.958586      -216.5641
  28   1.0000      -7.958513      -216.5622
  29   1.0000      -4.125876      -112.2708
  30   1.0000      -2.647787       -72.0500
  31   1.0000      -2.647644       -72.0461
  32   1.0000      -2.646795       -72.0229
  33   1.0000      -1.357271       -36.9332
  34   1.0000      -1.191454       -32.4211
  35   1.0000      -1.083763       -29.4907
  36   1.0000      -1.042564       -28.3696
  37   1.0000      -1.030276       -28.0352
  38   1.0000      -1.019101       -27.7311
  39   1.0000      -1.015553       -27.6346
  40   1.0000      -1.013319       -27.5738
  41   1.0000      -0.970456       -26.4075
  42   1.0000      -0.933324       -25.3970
  43   1.0000      -0.797548       -21.7024
  44   1.0000      -0.771725       -20.9997
  45   1.0000      -0.709190       -19.2980
  46   1.0000      -0.691223       -18.8091
  47   1.0000      -0.676483       -18.4080
  48   1.0000      -0.649406       -17.6712
  49   1.0000      -0.640541       -17.4300
  50   1.0000      -0.627165       -17.0660
  51   1.0000      -0.604281       -16.4433
  52   1.0000      -0.595742       -16.2110
  53   1.0000      -0.593864       -16.1599
  54   1.0000      -0.583313       -15.8728
  55   1.0000      -0.575773       -15.6676
  56   1.0000      -0.557561       -15.1720
  57   1.0000      -0.556672       -15.1478
  58   1.0000      -0.540990       -14.7211
  59   1.0000      -0.527272       -14.3478
  60   1.0000      -0.525845       -14.3090
  61   1.0000      -0.499415       -13.5898
  62   1.0000      -0.467817       -12.7299
  63   1.0000      -0.462353       -12.5813
  64   1.0000      -0.453978       -12.3534
  65   1.0000      -0.434245       -11.8164
  66   1.0000      -0.431489       -11.7414
  67   1.0000      -0.429316       -11.6823
  68   1.0000      -0.425457       -11.5773
  69   1.0000      -0.408802       -11.1241
  70   1.0000      -0.397297       -10.8110
  71   1.0000      -0.393678       -10.7125
  72   0.0000       0.005094         0.1386
  73   0.0000       0.009481         0.2580
  74   0.0000       0.019206         0.5226
  75   0.0000       0.019755         0.5376
  76   0.0000       0.030272         0.8237

E(0)                                       ...  -3028.426847931
E(0)                                       ...  -3028.426847931
E(CORR)(strong-pairs)                      ...     -2.871165282
E(CORR)(weak-pairs)                        ...     -0.035600807
E(CORR)(corrected)                         ...     -2.906766090
E(TOT)                                     ...  -3031.333614021
E(CCSD(T))                                 ...  -3031.452050376
FINAL SINGLE POINT ENERGY     -3031.452050375749

DIPOLE MOMENT
-------------
                                X             Y             Z
Electronic contribution:     39.39786       5.69071       1.70522
Nuclear contribution   :    -44.47743      -5.45187      -2.11359
                        -----------------------------------------
Total Dipole Moment    :     -5.07957       0.23884      -0.40837
                        -----------------------------------------
Magnitude (a.u.)       :      5.10155
Magnitude (Debye)      :     12.96711

Rotational constants in cm-1:     0.019001     0.011761     0.010855
Rotational constants in MHz :   569.644152   352.583056   325.434688

                             ****ORCA TERMINATED NORMALLY****
TOTAL RUN TIME: 0 days 20 hours 50 minutes 25 seconds 538 msec
