                         Program Version 4.1.2  - RELEASE  -
|  1> ! aug-cc-pVTZ aug-cc-pVTZ/C DLPNO-CCSD(T1) TightSCF NormalPNO UNO MiniPrint AutoAux
|  2> %pal nproc 10 end
|  3> %maxcore 20000
|  4> %mdci
|  5>      density none
|  6> end
|  7>
|  8> * xyz 0 6
|  9>  O     -0.33358900     -0.12173500     -0.63188200
| 10>  C     -1.27376800     -1.04523800     -0.55230100
| 11>  C     -2.92936000     -0.15916700      0.13609700
| 12>  C     -2.31856500      1.04863600     -0.17083700
| 13>  C     -2.41186500      1.66150200     -1.52422700
| 14> Fe      1.41502600      0.07510100      0.03002400
| 15> Cl      1.97845000      2.06810200     -0.71802000
| 16>  C     -1.56192700      1.83748200      0.83736900
| 17> Cl      2.54296500     -1.63548300     -0.76972900
| 18> Cl      1.27253200      0.01191800      2.24573000
| 19>  H     -3.63776300     -0.52601800     -0.60367800
| 20>  H     -2.28078000      2.52897800      1.30542300
| 21>  H     -1.12704300      1.22870500      1.62993000
| 22>  H     -0.77547100      2.43582800      0.37080800
| 23>  H     -2.76289800      2.69578700     -1.41281400
| 24>  H     -1.40659900      1.71801600     -1.95906400
| 25>  H     -3.08793900      1.13151900     -2.19680300
| 26>  C     -3.25134300     -0.56010000      1.56050200
| 27>  H     -4.12209000      0.00782200      1.91115100
| 28>  H     -3.50890200     -1.61980900      1.62238600
| 29>  H     -2.43051800     -0.36969500      2.25477400
| 30>  C     -1.04747500     -2.13695000      0.47081600
| 31>  H     -1.88891300     -2.82849600      0.54249600
| 32>  H     -0.17122900     -2.69360200      0.11022800
| 33>  H     -0.79343900     -1.73647400      1.45216800
| 34>  C     -1.73673500     -1.55237500     -1.90598900
| 35>  H     -0.88698300     -2.10771300     -2.32300200
| 36>  H     -2.59308500     -2.22683000     -1.82937300
| 37>  H     -1.95917900     -0.73663700     -2.59444900
| 38> *
| 39>
| 40>
| 41>                          ****END OF INPUT****

CARTESIAN COORDINATES (ANGSTROEM)
---------------------------------
  O     -0.333589   -0.121735   -0.631882
  C     -1.273768   -1.045238   -0.552301
  C     -2.929360   -0.159167    0.136097
  C     -2.318565    1.048636   -0.170837
  C     -2.411865    1.661502   -1.524227
  Fe     1.415026    0.075101    0.030024
  Cl     1.978450    2.068102   -0.718020
  C     -1.561927    1.837482    0.837369
  Cl     2.542965   -1.635483   -0.769729
  Cl     1.272532    0.011918    2.245730
  H     -3.637763   -0.526018   -0.603678
  H     -2.280780    2.528978    1.305423
  H     -1.127043    1.228705    1.629930
  H     -0.775471    2.435828    0.370808
  H     -2.762898    2.695787   -1.412814
  H     -1.406599    1.718016   -1.959064
  H     -3.087939    1.131519   -2.196803
  C     -3.251343   -0.560100    1.560502
  H     -4.122090    0.007822    1.911151
  H     -3.508902   -1.619809    1.622386
  H     -2.430518   -0.369695    2.254774
  C     -1.047475   -2.136950    0.470816
  H     -1.888913   -2.828496    0.542496
  H     -0.171229   -2.693602    0.110228
  H     -0.793439   -1.736474    1.452168
  C     -1.736735   -1.552375   -1.905989
  H     -0.886983   -2.107713   -2.323002
  H     -2.593085   -2.226830   -1.829373
  H     -1.959179   -0.736637   -2.594449

ORBITAL ENERGIES
----------------
                 SPIN UP ORBITALS
  NO   OCC          E(Eh)            E(eV)
   0   1.0000    -261.553410     -7117.2301
   1   1.0000    -104.778594     -2851.1705
   2   1.0000    -104.776314     -2851.1084
   3   1.0000    -104.775305     -2851.0810
   4   1.0000     -32.221296      -876.7860
   5   1.0000     -27.697280      -753.6813
   6   1.0000     -27.696950      -753.6723
   7   1.0000     -27.696734      -753.6665
   8   1.0000     -20.557800      -559.4062
   9   1.0000     -11.391623      -309.9818
  10   1.0000     -11.355611      -309.0019
  11   1.0000     -11.276449      -306.8478
  12   1.0000     -11.271399      -306.7104
  13   1.0000     -11.260135      -306.4039
  14   1.0000     -11.258036      -306.3467
  15   1.0000     -11.257484      -306.3317
  16   1.0000     -11.250570      -306.1436
  17   1.0000     -10.505188      -285.8607
  18   1.0000     -10.502861      -285.7974
  19   1.0000     -10.501878      -285.7706
  20   1.0000      -7.972073      -216.9311
  21   1.0000      -7.971223      -216.9080
  22   1.0000      -7.971181      -216.9069
  23   1.0000      -7.969676      -216.8659
  24   1.0000      -7.968964      -216.8465
  25   1.0000      -7.968881      -216.8443
  26   1.0000      -7.968720      -216.8399
  27   1.0000      -7.967977      -216.8197
  28   1.0000      -7.967899      -216.8175
  29   1.0000      -4.576665      -124.5374
  30   1.0000      -3.189336       -86.7862
  31   1.0000      -3.188669       -86.7681
  32   1.0000      -3.188196       -86.7552
  33   1.0000      -1.403055       -38.1791
  34   1.0000      -1.173775       -31.9400
  35   1.0000      -1.085844       -29.5473
  36   1.0000      -1.049791       -28.5663
  37   1.0000      -1.044365       -28.4186
  38   1.0000      -1.042205       -28.3598
  39   1.0000      -1.041781       -28.3483
  40   1.0000      -0.998488       -27.1702
  41   1.0000      -0.984303       -26.7842
  42   1.0000      -0.931971       -25.3602
  43   1.0000      -0.917922       -24.9779
  44   1.0000      -0.906177       -24.6583
  45   1.0000      -0.906059       -24.6551
  46   1.0000      -0.897067       -24.4104
  47   1.0000      -0.896811       -24.4035
  48   1.0000      -0.787167       -21.4199
  49   1.0000      -0.762732       -20.7550
  50   1.0000      -0.695950       -18.9378
  51   1.0000      -0.694184       -18.8897
  52   1.0000      -0.676372       -18.4050
  53   1.0000      -0.656836       -17.8734
  54   1.0000      -0.647640       -17.6232
  55   1.0000      -0.624104       -16.9827
  56   1.0000      -0.601607       -16.3706
  57   1.0000      -0.593410       -16.1475
  58   1.0000      -0.588771       -16.0213
  59   1.0000      -0.579443       -15.7674
  60   1.0000      -0.574418       -15.6307
  61   1.0000      -0.563401       -15.3309
  62   1.0000      -0.555095       -15.1049
  63   1.0000      -0.551384       -15.0039
  64   1.0000      -0.539194       -14.6722
  65   1.0000      -0.526753       -14.3337
  66   1.0000      -0.513833       -13.9821
  67   1.0000      -0.478706       -13.0263
  68   1.0000      -0.464013       -12.6264
  69   1.0000      -0.454650       -12.3716
  70   1.0000      -0.430642       -11.7184
  71   1.0000      -0.427159       -11.6236
  72   1.0000      -0.425372       -11.5750
  73   1.0000      -0.417090       -11.3496
  74   1.0000      -0.415683       -11.3113
  75   1.0000      -0.414721       -11.2851
  76   1.0000      -0.386498       -10.5171
  77   0.0000       0.009187         0.2500
  78   0.0000       0.020014         0.5446
  79   0.0000       0.021607         0.5880
  80   0.0000       0.029816         0.8113
  81   0.0000       0.034188         0.9303

                 SPIN DOWN ORBITALS
  NO   OCC          E(Eh)            E(eV)
   0   1.0000    -261.549863     -7117.1336
   1   1.0000    -104.777229     -2851.1334
   2   1.0000    -104.774934     -2851.0709
   3   1.0000    -104.773858     -2851.0416
   4   1.0000     -32.059240      -872.3763
   5   1.0000     -27.537269      -749.3272
   6   1.0000     -27.537146      -749.3238
   7   1.0000     -27.536721      -749.3123
   8   1.0000     -20.552643      -559.2658
   9   1.0000     -11.391583      -309.9807
  10   1.0000     -11.355559      -309.0005
  11   1.0000     -11.276199      -306.8410
  12   1.0000     -11.271399      -306.7104
  13   1.0000     -11.260167      -306.4047
  14   1.0000     -11.258063      -306.3475
  15   1.0000     -11.257378      -306.3288
  16   1.0000     -11.250538      -306.1427
  17   1.0000     -10.503720      -285.8208
  18   1.0000     -10.501386      -285.7572
  19   1.0000     -10.500329      -285.7285
  20   1.0000      -7.969590      -216.8636
  21   1.0000      -7.969072      -216.8495
  22   1.0000      -7.968995      -216.8474
  23   1.0000      -7.967361      -216.8029
  24   1.0000      -7.966668      -216.7841
  25   1.0000      -7.966575      -216.7815
  26   1.0000      -7.966260      -216.7729
  27   1.0000      -7.965581      -216.7545
  28   1.0000      -7.965499      -216.7522
  29   1.0000      -4.134369      -112.5019
  30   1.0000      -2.656108       -72.2764
  31   1.0000      -2.656076       -72.2755
  32   1.0000      -2.655368       -72.2562
  33   1.0000      -1.389889       -37.8208
  34   1.0000      -1.172736       -31.9118
  35   1.0000      -1.083145       -29.4739
  36   1.0000      -1.041010       -28.3273
  37   1.0000      -1.035463       -28.1764
  38   1.0000      -1.023916       -27.8622
  39   1.0000      -1.021730       -27.8027
  40   1.0000      -0.998143       -27.1609
  41   1.0000      -0.983692       -26.7676
  42   1.0000      -0.929217       -25.2853
  43   1.0000      -0.799843       -21.7648
  44   1.0000      -0.763672       -20.7806
  45   1.0000      -0.696389       -18.9497
  46   1.0000      -0.693562       -18.8728
  47   1.0000      -0.678166       -18.4538
  48   1.0000      -0.656427       -17.8623
  49   1.0000      -0.647103       -17.6086
  50   1.0000      -0.623955       -16.9787
  51   1.0000      -0.600623       -16.3438
  52   1.0000      -0.593421       -16.1478
  53   1.0000      -0.588680       -16.0188
  54   1.0000      -0.579024       -15.7560
  55   1.0000      -0.574268       -15.6266
  56   1.0000      -0.563414       -15.3313
  57   1.0000      -0.554462       -15.0877
  58   1.0000      -0.550875       -14.9901
  59   1.0000      -0.533772       -14.5247
  60   1.0000      -0.526522       -14.3274
  61   1.0000      -0.505888       -13.7659
  62   1.0000      -0.476539       -12.9673
  63   1.0000      -0.468258       -12.7420
  64   1.0000      -0.464529       -12.6405
  65   1.0000      -0.439182       -11.9508
  66   1.0000      -0.436109       -11.8671
  67   1.0000      -0.434648       -11.8274
  68   1.0000      -0.422685       -11.5019
  69   1.0000      -0.414560       -11.2808
  70   1.0000      -0.401510       -10.9256
  71   1.0000      -0.383166       -10.4265
  72   0.0000       0.009186         0.2500
  73   0.0000       0.019976         0.5436
  74   0.0000       0.021588         0.5874
  75   0.0000       0.029802         0.8110
  76   0.0000       0.033860         0.9214

E(0)                                       ...  -3028.424227573
E(0)                                       ...  -3028.424227573
E(CORR)(strong-pairs)                      ...     -2.872358894
E(CORR)(weak-pairs)                        ...     -0.036492644
E(CORR)(corrected)                         ...     -2.908851537
E(TOT)                                     ...  -3031.333079111
E(CCSD(T))                                 ...  -3031.452605091
FINAL SINGLE POINT ENERGY     -3031.452605090862

DIPOLE MOMENT
-------------
                                X             Y             Z
Electronic contribution:     40.86145       3.74890       2.30187
Nuclear contribution   :    -45.42189      -3.87711      -2.82224
                        -----------------------------------------
Total Dipole Moment    :     -4.56044      -0.12821      -0.52037
                        -----------------------------------------
Magnitude (a.u.)       :      4.59182
Magnitude (Debye)      :     11.67147

Rotational constants in cm-1:     0.019208     0.011461     0.010689
Rotational constants in MHz :   575.841320   343.588901   320.457346

                             ****ORCA TERMINATED NORMALLY****
TOTAL RUN TIME: 0 days 21 hours 1 minutes 24 seconds 116 msec
