                         Program Version 4.1.2  - RELEASE  -
|  1> ! aug-cc-pVTZ aug-cc-pVTZ/C DLPNO-CCSD(T1) TightSCF NormalPNO UNO MiniPrint AutoAux
|  2> %pal nproc 10 end
|  3> %maxcore 20000
|  4> %mdci
|  5>      density none
|  6> end
|  7>
|  8> * xyz 0 6
|  9>  O     -0.30076600     -0.28575900     -0.72248500
| 10>  C     -1.34127200     -1.18013100     -0.51727200
| 11>  C     -2.61247900     -0.33445700      0.23030300
| 12>  C     -2.28286700      1.03344700     -0.14497500
| 13>  C     -2.60320200      1.56892500     -1.48066000
| 14> Fe      1.36055500      0.08941100     -0.02658600
| 15> Cl      1.68747400      2.16601800     -0.74882500
| 16>  C     -1.59738700      1.93803400      0.78526400
| 17> Cl      2.80904500     -1.42527000     -0.68479100
| 18> Cl      1.10007100      0.07858700      2.20855600
| 19>  H     -3.50873400     -0.66334500     -0.30311900
| 20>  H     -2.39786100      2.38136400      1.40661000
| 21>  H     -0.92628000      1.41502400      1.47183300
| 22>  H     -1.07048100      2.74488300      0.27189400
| 23>  H     -2.91444500      2.61756300     -1.41088800
| 24>  H     -1.64165700      1.57489800     -2.02109000
| 25>  H     -3.33283700      0.98083400     -2.03640000
| 26>  C     -2.74180000     -0.59221100      1.73334000
| 27>  H     -3.51673700      0.04904200      2.16821500
| 28>  H     -3.03864500     -1.62893500      1.90429100
| 29>  H     -1.80616600     -0.41747200      2.26829200
| 30>  C     -0.92707100     -2.35741400      0.36071900
| 31>  H     -1.74244200     -3.07273400      0.50575400
| 32>  H     -0.10873700     -2.86528300     -0.16254800
| 33>  H     -0.54590800     -2.03147900      1.32898700
| 34>  C     -1.84607900     -1.67940300     -1.87358100
| 35>  H     -1.02231500     -2.21395200     -2.35660200
| 36>  H     -2.69496800     -2.36249300     -1.76404100
| 37>  H     -2.12916900     -0.85595000     -2.53288200
| 38> *
| 39>
| 40>
| 41>                          ****END OF INPUT****

CARTESIAN COORDINATES (ANGSTROEM)
---------------------------------
  O     -0.300766   -0.285759   -0.722485
  C     -1.341272   -1.180131   -0.517272
  C     -2.612479   -0.334457    0.230303
  C     -2.282867    1.033447   -0.144975
  C     -2.603202    1.568925   -1.480660
  Fe     1.360555    0.089411   -0.026586
  Cl     1.687474    2.166018   -0.748825
  C     -1.597387    1.938034    0.785264
  Cl     2.809045   -1.425270   -0.684791
  Cl     1.100071    0.078587    2.208556
  H     -3.508734   -0.663345   -0.303119
  H     -2.397861    2.381364    1.406610
  H     -0.926280    1.415024    1.471833
  H     -1.070481    2.744883    0.271894
  H     -2.914445    2.617563   -1.410888
  H     -1.641657    1.574898   -2.021090
  H     -3.332837    0.980834   -2.036400
  C     -2.741800   -0.592211    1.733340
  H     -3.516737    0.049042    2.168215
  H     -3.038645   -1.628935    1.904291
  H     -1.806166   -0.417472    2.268292
  C     -0.927071   -2.357414    0.360719
  H     -1.742442   -3.072734    0.505754
  H     -0.108737   -2.865283   -0.162548
  H     -0.545908   -2.031479    1.328987
  C     -1.846079   -1.679403   -1.873581
  H     -1.022315   -2.213952   -2.356602
  H     -2.694968   -2.362493   -1.764041
  H     -2.129169   -0.855950   -2.532882

ORBITAL ENERGIES
----------------
                 SPIN UP ORBITALS
  NO   OCC          E(Eh)            E(eV)
   0   1.0000    -261.541669     -7116.9106
   1   1.0000    -104.773376     -2851.0285
   2   1.0000    -104.770061     -2850.9383
   3   1.0000    -104.766207     -2850.8334
   4   1.0000     -32.209556      -876.4666
   5   1.0000     -27.685559      -753.3624
   6   1.0000     -27.685267      -753.3544
   7   1.0000     -27.684942      -753.3456
   8   1.0000     -20.534767      -558.7794
   9   1.0000     -11.411237      -310.5156
  10   1.0000     -11.344136      -308.6896
  11   1.0000     -11.296047      -307.3811
  12   1.0000     -11.292323      -307.2797
  13   1.0000     -11.280965      -306.9707
  14   1.0000     -11.258355      -306.3554
  15   1.0000     -11.240129      -305.8595
  16   1.0000     -11.230828      -305.6064
  17   1.0000     -10.499925      -285.7175
  18   1.0000     -10.496562      -285.6260
  19   1.0000     -10.492744      -285.5221
  20   1.0000      -7.966837      -216.7887
  21   1.0000      -7.965911      -216.7635
  22   1.0000      -7.965875      -216.7625
  23   1.0000      -7.963408      -216.6954
  24   1.0000      -7.962646      -216.6746
  25   1.0000      -7.962539      -216.6717
  26   1.0000      -7.959531      -216.5899
  27   1.0000      -7.958866      -216.5718
  28   1.0000      -7.958776      -216.5693
  29   1.0000      -4.565058      -124.2215
  30   1.0000      -3.177586       -86.4665
  31   1.0000      -3.177155       -86.4548
  32   1.0000      -3.176800       -86.4451
  33   1.0000      -1.356314       -36.9072
  34   1.0000      -1.197499       -32.5856
  35   1.0000      -1.091223       -29.6937
  36   1.0000      -1.044017       -28.4092
  37   1.0000      -1.041487       -28.3403
  38   1.0000      -1.036485       -28.2042
  39   1.0000      -1.033070       -28.1113
  40   1.0000      -1.020155       -27.7598
  41   1.0000      -0.965928       -26.2842
  42   1.0000      -0.933798       -25.4099
  43   1.0000      -0.904243       -24.6057
  44   1.0000      -0.894778       -24.3481
  45   1.0000      -0.894587       -24.3430
  46   1.0000      -0.887286       -24.1443
  47   1.0000      -0.886385       -24.1198
  48   1.0000      -0.800098       -21.7718
  49   1.0000      -0.762379       -20.7454
  50   1.0000      -0.712192       -19.3797
  51   1.0000      -0.692020       -18.8308
  52   1.0000      -0.679663       -18.4946
  53   1.0000      -0.641515       -17.4565
  54   1.0000      -0.637554       -17.3487
  55   1.0000      -0.626865       -17.0579
  56   1.0000      -0.607069       -16.5192
  57   1.0000      -0.601224       -16.3601
  58   1.0000      -0.592928       -16.1344
  59   1.0000      -0.586959       -15.9720
  60   1.0000      -0.575767       -15.6674
  61   1.0000      -0.555848       -15.1254
  62   1.0000      -0.553878       -15.0718
  63   1.0000      -0.538580       -14.6555
  64   1.0000      -0.527808       -14.3624
  65   1.0000      -0.523222       -14.2376
  66   1.0000      -0.502515       -13.6741
  67   1.0000      -0.465407       -12.6644
  68   1.0000      -0.460416       -12.5286
  69   1.0000      -0.443803       -12.0765
  70   1.0000      -0.429033       -11.6746
  71   1.0000      -0.420874       -11.4526
  72   1.0000      -0.418843       -11.3973
  73   1.0000      -0.412523       -11.2253
  74   1.0000      -0.410123       -11.1600
  75   1.0000      -0.408393       -11.1129
  76   1.0000      -0.406919       -11.0728
  77   0.0000       0.001980         0.0539
  78   0.0000       0.005317         0.1447
  79   0.0000       0.018793         0.5114
  80   0.0000       0.019395         0.5278
  81   0.0000       0.030105         0.8192

                 SPIN DOWN ORBITALS
  NO   OCC          E(Eh)            E(eV)
   0   1.0000    -261.538128     -7116.8143
   1   1.0000    -104.772119     -2850.9943
   2   1.0000    -104.768786     -2850.9036
   3   1.0000    -104.764797     -2850.7951
   4   1.0000     -32.047510      -872.0571
   5   1.0000     -27.525684      -749.0120
   6   1.0000     -27.525461      -749.0059
   7   1.0000     -27.524807      -748.9881
   8   1.0000     -20.528334      -558.6044
   9   1.0000     -11.411246      -310.5158
  10   1.0000     -11.343941      -308.6843
  11   1.0000     -11.296041      -307.3809
  12   1.0000     -11.292185      -307.2760
  13   1.0000     -11.280994      -306.9714
  14   1.0000     -11.258365      -306.3557
  15   1.0000     -11.240025      -305.8566
  16   1.0000     -11.230791      -305.6054
  17   1.0000     -10.498564      -285.6804
  18   1.0000     -10.495191      -285.5887
  19   1.0000     -10.491236      -285.4811
  20   1.0000      -7.964373      -216.7216
  21   1.0000      -7.964039      -216.7125
  22   1.0000      -7.963958      -216.7103
  23   1.0000      -7.961137      -216.6336
  24   1.0000      -7.960594      -216.6188
  25   1.0000      -7.960495      -216.6161
  26   1.0000      -7.957243      -216.5276
  27   1.0000      -7.956466      -216.5064
  28   1.0000      -7.956396      -216.5045
  29   1.0000      -4.122883      -112.1894
  30   1.0000      -2.644884       -71.9710
  31   1.0000      -2.644639       -71.9643
  32   1.0000      -2.643911       -71.9445
  33   1.0000      -1.339518       -36.4501
  34   1.0000      -1.196289       -32.5527
  35   1.0000      -1.088589       -29.6220
  36   1.0000      -1.041619       -28.3439
  37   1.0000      -1.028816       -27.9955
  38   1.0000      -1.019936       -27.7539
  39   1.0000      -1.017432       -27.6857
  40   1.0000      -1.013112       -27.5682
  41   1.0000      -0.965119       -26.2622
  42   1.0000      -0.932623       -25.3780
  43   1.0000      -0.803944       -21.8764
  44   1.0000      -0.769735       -20.9456
  45   1.0000      -0.712966       -19.4008
  46   1.0000      -0.691516       -18.8171
  47   1.0000      -0.680169       -18.5084
  48   1.0000      -0.642867       -17.4933
  49   1.0000      -0.638234       -17.3672
  50   1.0000      -0.625234       -17.0135
  51   1.0000      -0.606794       -16.5117
  52   1.0000      -0.601387       -16.3646
  53   1.0000      -0.591777       -16.1031
  54   1.0000      -0.587010       -15.9733
  55   1.0000      -0.574288       -15.6272
  56   1.0000      -0.555778       -15.1235
  57   1.0000      -0.551876       -15.0173
  58   1.0000      -0.537718       -14.6321
  59   1.0000      -0.522337       -14.2135
  60   1.0000      -0.521806       -14.1991
  61   1.0000      -0.496825       -13.5193
  62   1.0000      -0.465664       -12.6714
  63   1.0000      -0.461016       -12.5449
  64   1.0000      -0.449891       -12.2422
  65   1.0000      -0.436606       -11.8807
  66   1.0000      -0.432578       -11.7711
  67   1.0000      -0.428089       -11.6489
  68   1.0000      -0.426918       -11.6170
  69   1.0000      -0.407195       -11.0803
  70   1.0000      -0.397575       -10.8186
  71   1.0000      -0.395612       -10.7651
  72   0.0000       0.001893         0.0515
  73   0.0000       0.005276         0.1436
  74   0.0000       0.018784         0.5111
  75   0.0000       0.019384         0.5275
  76   0.0000       0.030133         0.8200

E(0)                                       ...  -3028.430118947
E(0)                                       ...  -3028.430118947
E(CORR)(strong-pairs)                      ...     -2.868911768
E(CORR)(weak-pairs)                        ...     -0.035747559
E(CORR)(corrected)                         ...     -2.904659327
E(TOT)                                     ...  -3031.334778274
E(CCSD(T))                                 ...  -3031.452184789
FINAL SINGLE POINT ENERGY     -3031.452184789062

DIPOLE MOMENT
-------------
                                X             Y             Z
Electronic contribution:     38.77728       6.09991       1.82685
Nuclear contribution   :    -43.95084      -5.65286      -2.19689
                        -----------------------------------------
Total Dipole Moment    :     -5.17357       0.44706      -0.37004
                        -----------------------------------------
Magnitude (a.u.)       :      5.20601
Magnitude (Debye)      :     13.23263

Rotational constants in cm-1:     0.018861     0.011989     0.010960
Rotational constants in MHz :   565.437162   359.406398   328.558730

                             ****ORCA TERMINATED NORMALLY****
TOTAL RUN TIME: 0 days 21 hours 42 minutes 49 seconds 500 msec
