                         Program Version 4.1.2  - RELEASE  -
|  1> ! aug-cc-pVTZ aug-cc-pVTZ/C DLPNO-CCSD(T1) TightSCF NormalPNO UNO MiniPrint AutoAux
|  2> %pal nproc 10 end
|  3> %maxcore 20000
|  4> %mdci
|  5>      density none
|  6> end
|  7>
|  8> * xyz 0 6
|  9>  O     -0.32601600     -0.17557900     -0.54560600
| 10>  C     -1.17216000     -1.14036900     -0.37430700
| 11>  C     -2.69126900     -0.33752400      0.74383800
| 12>  C     -2.86359000      0.76825600     -0.06354500
| 13>  C     -3.80917000      0.76126700     -1.22107600
| 14> Fe      1.48694800      0.17323800     -0.06962100
| 15> Cl      1.84193300      2.15144300     -0.94507800
| 16>  C     -2.06889800      2.00448500      0.13137500
| 17> Cl      2.59308600     -1.50154900     -0.95909700
| 18> Cl      1.62107900      0.19391100      2.13280400
| 19>  H     -3.40033400     -1.15051100      0.59087800
| 20>  H     -2.51180600      2.86616500     -0.37396000
| 21>  H     -1.88667300      2.23859500      1.18267400
| 22>  H     -1.08055800      1.81989900     -0.32540600
| 23>  H     -4.60341500      1.49350200     -1.01897000
| 24>  H     -3.31281100      1.09735500     -2.14041900
| 25>  H     -4.27655100     -0.21057400     -1.38934000
| 26>  C     -2.13725000     -0.19857800      2.14900700
| 27>  H     -2.77426600      0.47716100      2.73201600
| 28>  H     -2.12601300     -1.16081600      2.66366800
| 29>  H     -1.12146200      0.20362900      2.16300000
| 30>  C     -0.77084300     -2.25449800      0.57833200
| 31>  H     -1.60462200     -2.91624300      0.82379100
| 32>  H     -0.01034700     -2.83680300      0.04125200
| 33>  H     -0.30663700     -1.87311900      1.48677700
| 34>  C     -1.83621300     -1.63268900     -1.64720400
| 35>  H     -1.09783400     -2.27191000     -2.14699900
| 36>  H     -2.72983500     -2.23155200     -1.45478400
| 37>  H     -2.06666800     -0.81110900     -2.32439400
| 38> *
| 39>
| 40>
| 41>                          ****END OF INPUT****

CARTESIAN COORDINATES (ANGSTROEM)
---------------------------------
  O     -0.326016   -0.175579   -0.545606
  C     -1.172160   -1.140369   -0.374307
  C     -2.691269   -0.337524    0.743838
  C     -2.863590    0.768256   -0.063545
  C     -3.809170    0.761267   -1.221076
  Fe     1.486948    0.173238   -0.069621
  Cl     1.841933    2.151443   -0.945078
  C     -2.068898    2.004485    0.131375
  Cl     2.593086   -1.501549   -0.959097
  Cl     1.621079    0.193911    2.132804
  H     -3.400334   -1.150511    0.590878
  H     -2.511806    2.866165   -0.373960
  H     -1.886673    2.238595    1.182674
  H     -1.080558    1.819899   -0.325406
  H     -4.603415    1.493502   -1.018970
  H     -3.312811    1.097355   -2.140419
  H     -4.276551   -0.210574   -1.389340
  C     -2.137250   -0.198578    2.149007
  H     -2.774266    0.477161    2.732016
  H     -2.126013   -1.160816    2.663668
  H     -1.121462    0.203629    2.163000
  C     -0.770843   -2.254498    0.578332
  H     -1.604622   -2.916243    0.823791
  H     -0.010347   -2.836803    0.041252
  H     -0.306637   -1.873119    1.486777
  C     -1.836213   -1.632689   -1.647204
  H     -1.097834   -2.271910   -2.146999
  H     -2.729835   -2.231552   -1.454784
  H     -2.066668   -0.811109   -2.324394

ORBITAL ENERGIES
----------------
                 SPIN UP ORBITALS
  NO   OCC          E(Eh)            E(eV)
   0   1.0000    -261.556873     -7117.3243
   1   1.0000    -104.780191     -2851.2139
   2   1.0000    -104.777317     -2851.1358
   3   1.0000    -104.776692     -2851.1187
   4   1.0000     -32.224734      -876.8796
   5   1.0000     -27.700903      -753.7799
   6   1.0000     -27.700255      -753.7623
   7   1.0000     -27.700087      -753.7577
   8   1.0000     -20.573461      -559.8323
   9   1.0000     -11.397451      -310.1404
  10   1.0000     -11.334567      -308.4292
  11   1.0000     -11.276431      -306.8473
  12   1.0000     -11.271955      -306.7255
  13   1.0000     -11.261772      -306.4484
  14   1.0000     -11.256137      -306.2951
  15   1.0000     -11.254335      -306.2460
  16   1.0000     -11.246486      -306.0324
  17   1.0000     -10.506831      -285.9054
  18   1.0000     -10.503954      -285.8271
  19   1.0000     -10.503285      -285.8089
  20   1.0000      -7.973691      -216.9752
  21   1.0000      -7.972879      -216.9531
  22   1.0000      -7.972851      -216.9523
  23   1.0000      -7.970807      -216.8967
  24   1.0000      -7.970103      -216.8775
  25   1.0000      -7.970055      -216.8762
  26   1.0000      -7.969979      -216.8742
  27   1.0000      -7.969403      -216.8585
  28   1.0000      -7.969318      -216.8562
  29   1.0000      -4.579995      -124.6280
  30   1.0000      -3.192856       -86.8820
  31   1.0000      -3.191787       -86.8529
  32   1.0000      -3.191443       -86.8436
  33   1.0000      -1.416897       -38.5557
  34   1.0000      -1.167645       -31.7732
  35   1.0000      -1.084314       -29.5057
  36   1.0000      -1.051909       -28.6239
  37   1.0000      -1.046676       -28.4815
  38   1.0000      -1.044167       -28.4132
  39   1.0000      -1.039531       -28.2871
  40   1.0000      -0.993341       -27.0302
  41   1.0000      -0.988189       -26.8900
  42   1.0000      -0.927026       -25.2257
  43   1.0000      -0.918071       -24.9820
  44   1.0000      -0.909294       -24.7431
  45   1.0000      -0.909253       -24.7420
  46   1.0000      -0.899659       -24.4810
  47   1.0000      -0.899204       -24.4686
  48   1.0000      -0.793374       -21.5888
  49   1.0000      -0.760570       -20.6962
  50   1.0000      -0.692011       -18.8306
  51   1.0000      -0.687706       -18.7134
  52   1.0000      -0.677112       -18.4252
  53   1.0000      -0.669480       -18.2175
  54   1.0000      -0.648900       -17.6575
  55   1.0000      -0.624798       -17.0016
  56   1.0000      -0.602090       -16.3837
  57   1.0000      -0.596937       -16.2435
  58   1.0000      -0.583296       -15.8723
  59   1.0000      -0.578149       -15.7322
  60   1.0000      -0.569709       -15.5026
  61   1.0000      -0.567694       -15.4477
  62   1.0000      -0.556342       -15.1388
  63   1.0000      -0.544349       -14.8125
  64   1.0000      -0.533632       -14.5209
  65   1.0000      -0.522301       -14.2125
  66   1.0000      -0.517602       -14.0847
  67   1.0000      -0.481427       -13.1003
  68   1.0000      -0.465774       -12.6744
  69   1.0000      -0.457558       -12.4508
  70   1.0000      -0.432429       -11.7670
  71   1.0000      -0.429026       -11.6744
  72   1.0000      -0.426314       -11.6006
  73   1.0000      -0.418023       -11.3750
  74   1.0000      -0.416420       -11.3314
  75   1.0000      -0.415742       -11.3129
  76   1.0000      -0.383840       -10.4448
  77   0.0000       0.008854         0.2409
  78   0.0000       0.020184         0.5492
  79   0.0000       0.021637         0.5888
  80   0.0000       0.025989         0.7072
  81   0.0000       0.032718         0.8903

                 SPIN DOWN ORBITALS
  NO   OCC          E(Eh)            E(eV)
   0   1.0000    -261.553314     -7117.2275
   1   1.0000    -104.778764     -2851.1751
   2   1.0000    -104.775844     -2851.0957
   3   1.0000    -104.775243     -2851.0793
   4   1.0000     -32.062673      -872.4697
   5   1.0000     -27.540650      -749.4192
   6   1.0000     -27.540560      -749.4167
   7   1.0000     -27.540250      -749.4083
   8   1.0000     -20.569017      -559.7114
   9   1.0000     -11.397421      -310.1396
  10   1.0000     -11.334140      -308.4176
  11   1.0000     -11.276490      -306.8489
  12   1.0000     -11.272051      -306.7281
  13   1.0000     -11.261666      -306.4455
  14   1.0000     -11.256131      -306.2949
  15   1.0000     -11.254402      -306.2479
  16   1.0000     -11.246485      -306.0324
  17   1.0000     -10.505301      -285.8638
  18   1.0000     -10.502377      -285.7842
  19   1.0000     -10.501738      -285.7668
  20   1.0000      -7.971190      -216.9071
  21   1.0000      -7.970578      -216.8905
  22   1.0000      -7.970509      -216.8886
  23   1.0000      -7.968298      -216.8284
  24   1.0000      -7.967706      -216.8123
  25   1.0000      -7.967619      -216.8099
  26   1.0000      -7.967530      -216.8075
  27   1.0000      -7.966966      -216.7922
  28   1.0000      -7.966868      -216.7895
  29   1.0000      -4.137704      -112.5926
  30   1.0000      -2.659410       -72.3662
  31   1.0000      -2.659374       -72.3652
  32   1.0000      -2.658670       -72.3461
  33   1.0000      -1.405574       -38.2476
  34   1.0000      -1.166485       -31.7417
  35   1.0000      -1.081688       -29.4342
  36   1.0000      -1.040409       -28.3110
  37   1.0000      -1.036310       -28.1994
  38   1.0000      -1.024972       -27.8909
  39   1.0000      -1.023018       -27.8377
  40   1.0000      -0.993301       -27.0291
  41   1.0000      -0.987467       -26.8704
  42   1.0000      -0.920070       -25.0364
  43   1.0000      -0.807383       -21.9700
  44   1.0000      -0.760958       -20.7067
  45   1.0000      -0.693656       -18.8753
  46   1.0000      -0.687367       -18.7042
  47   1.0000      -0.677922       -18.4472
  48   1.0000      -0.668561       -18.1925
  49   1.0000      -0.648696       -17.6519
  50   1.0000      -0.624171       -16.9846
  51   1.0000      -0.601581       -16.3699
  52   1.0000      -0.596714       -16.2374
  53   1.0000      -0.583127       -15.8677
  54   1.0000      -0.577952       -15.7269
  55   1.0000      -0.568951       -15.4819
  56   1.0000      -0.567706       -15.4481
  57   1.0000      -0.556146       -15.1335
  58   1.0000      -0.543853       -14.7990
  59   1.0000      -0.530429       -14.4337
  60   1.0000      -0.521846       -14.2001
  61   1.0000      -0.508481       -13.8365
  62   1.0000      -0.479573       -13.0498
  63   1.0000      -0.470256       -12.7963
  64   1.0000      -0.467600       -12.7240
  65   1.0000      -0.441236       -12.0066
  66   1.0000      -0.437948       -11.9172
  67   1.0000      -0.435926       -11.8622
  68   1.0000      -0.423365       -11.5203
  69   1.0000      -0.415872       -11.3164
  70   1.0000      -0.401724       -10.9315
  71   1.0000      -0.381207       -10.3732
  72   0.0000       0.008856         0.2410
  73   0.0000       0.020168         0.5488
  74   0.0000       0.021661         0.5894
  75   0.0000       0.025774         0.7013
  76   0.0000       0.032334         0.8799

E(0)                                       ...  -3028.431590095
E(0)                                       ...  -3028.431590095
E(CORR)(strong-pairs)                      ...     -2.874802205
E(CORR)(weak-pairs)                        ...     -0.036331237
E(CORR)(corrected)                         ...     -2.911133442
E(TOT)                                     ...  -3031.342723537
E(CCSD(T))                                 ...  -3031.463203489
FINAL SINGLE POINT ENERGY     -3031.463203489027

DIPOLE MOMENT
-------------
                                X             Y             Z
Electronic contribution:     42.80679       6.13976      -0.66185
Nuclear contribution   :    -47.47141      -6.87874       0.42440
                        -----------------------------------------
Total Dipole Moment    :     -4.66463      -0.73898      -0.23745
                        -----------------------------------------
Magnitude (a.u.)       :      4.72877
Magnitude (Debye)      :     12.01957

Rotational constants in cm-1:     0.019430     0.010568     0.010056
Rotational constants in MHz :   582.489343   316.812955   301.456751

                             ****ORCA TERMINATED NORMALLY****
TOTAL RUN TIME: 0 days 21 hours 8 minutes 24 seconds 368 msec
