                         Program Version 4.1.2  - RELEASE  -
|  1> ! aug-cc-pVTZ aug-cc-pVTZ/C DLPNO-CCSD(T1) TightSCF NormalPNO UNO MiniPrint AutoAux
|  2> %pal nproc 10 end
|  3> %maxcore 20000
|  4> %mdci
|  5>      density none
|  6> end
|  7>
|  8> * xyz 0 6
|  9>  O     -0.29536000     -0.20957300     -0.74768200
| 10>  C     -1.19068000     -1.12786800     -0.58938600
| 11>  C     -2.77179500     -0.30482400      0.52087500
| 12>  C     -2.59048200      0.92537700     -0.06449100
| 13>  C     -3.23658500      1.28460700     -1.36473100
| 14> Fe      1.43646400      0.13648600     -0.02338400
| 15> Cl      1.97971300      2.07896200     -0.88078300
| 16>  C     -1.69018600      1.96594300      0.50180800
| 17> Cl      2.65550200     -1.56946300     -0.66618400
| 18> Cl      1.20740900      0.22011000      2.17604700
| 19>  H     -3.54477700     -0.93209700      0.07974900
| 20>  H     -2.22766000      2.91944800      0.57949400
| 21>  H     -1.27021700      1.71070200      1.47303900
| 22>  H     -0.85964100      2.13722300     -0.19753600
| 23>  H     -3.81773000      2.20620500     -1.23243000
| 24>  H     -2.47221700      1.50935600     -2.12046900
| 25>  H     -3.90587400      0.50792200     -1.73912800
| 26>  C     -2.51864700     -0.54874300      1.99560500
| 27>  H     -3.25189600      0.01410500      2.58594100
| 28>  H     -2.64457300     -1.60391200      2.24590000
| 29>  H     -1.52239100     -0.24020600      2.31809100
| 30>  C     -0.86025300     -2.27319800      0.34533300
| 31>  H     -1.71371200     -2.93081300      0.52095900
| 32>  H     -0.07796100     -2.84670000     -0.17030700
| 33>  H     -0.44134400     -1.93036300      1.29062500
| 34>  C     -1.88939900     -1.55022200     -1.86817700
| 35>  H     -1.17082700     -2.18576700     -2.40138800
| 36>  H     -2.79251200     -2.13663000     -1.68621100
| 37>  H     -2.10830100     -0.70030000     -2.51226400
| 38> *
| 39>
| 40>
| 41>                          ****END OF INPUT****

CARTESIAN COORDINATES (ANGSTROEM)
---------------------------------
  O     -0.295360   -0.209573   -0.747682
  C     -1.190680   -1.127868   -0.589386
  C     -2.771795   -0.304824    0.520875
  C     -2.590482    0.925377   -0.064491
  C     -3.236585    1.284607   -1.364731
  Fe     1.436464    0.136486   -0.023384
  Cl     1.979713    2.078962   -0.880783
  C     -1.690186    1.965943    0.501808
  Cl     2.655502   -1.569463   -0.666184
  Cl     1.207409    0.220110    2.176047
  H     -3.544777   -0.932097    0.079749
  H     -2.227660    2.919448    0.579494
  H     -1.270217    1.710702    1.473039
  H     -0.859641    2.137223   -0.197536
  H     -3.817730    2.206205   -1.232430
  H     -2.472217    1.509356   -2.120469
  H     -3.905874    0.507922   -1.739128
  C     -2.518647   -0.548743    1.995605
  H     -3.251896    0.014105    2.585941
  H     -2.644573   -1.603912    2.245900
  H     -1.522391   -0.240206    2.318091
  C     -0.860253   -2.273198    0.345333
  H     -1.713712   -2.930813    0.520959
  H     -0.077961   -2.846700   -0.170307
  H     -0.441344   -1.930363    1.290625
  C     -1.889399   -1.550222   -1.868177
  H     -1.170827   -2.185767   -2.401388
  H     -2.792512   -2.136630   -1.686211
  H     -2.108301   -0.700300   -2.512264

ORBITAL ENERGIES
----------------
                 SPIN UP ORBITALS
  NO   OCC          E(Eh)            E(eV)
   0   1.0000    -261.559432     -7117.3940
   1   1.0000    -104.783356     -2851.3001
   2   1.0000    -104.778903     -2851.1789
   3   1.0000    -104.778486     -2851.1675
   4   1.0000     -32.227294      -876.9493
   5   1.0000     -27.703433      -753.8487
   6   1.0000     -27.702840      -753.8326
   7   1.0000     -27.702645      -753.8273
   8   1.0000     -20.575835      -559.8969
   9   1.0000     -11.402722      -310.2838
  10   1.0000     -11.327096      -308.2259
  11   1.0000     -11.269108      -306.6480
  12   1.0000     -11.268513      -306.6318
  13   1.0000     -11.263677      -306.5002
  14   1.0000     -11.257763      -306.3393
  15   1.0000     -11.250254      -306.1350
  16   1.0000     -11.246384      -306.0297
  17   1.0000     -10.510018      -285.9921
  18   1.0000     -10.505556      -285.8707
  19   1.0000     -10.505090      -285.8580
  20   1.0000      -7.976892      -217.0623
  21   1.0000      -7.976055      -217.0395
  22   1.0000      -7.976027      -217.0387
  23   1.0000      -7.972405      -216.9402
  24   1.0000      -7.971902      -216.9265
  25   1.0000      -7.971657      -216.9198
  26   1.0000      -7.971592      -216.9181
  27   1.0000      -7.971199      -216.9074
  28   1.0000      -7.971129      -216.9054
  29   1.0000      -4.582508      -124.6964
  30   1.0000      -3.195300       -86.9485
  31   1.0000      -3.194307       -86.9215
  32   1.0000      -3.193994       -86.9130
  33   1.0000      -1.420260       -38.6472
  34   1.0000      -1.161747       -31.6127
  35   1.0000      -1.086469       -29.5643
  36   1.0000      -1.054754       -28.7013
  37   1.0000      -1.048939       -28.5431
  38   1.0000      -1.046171       -28.4678
  39   1.0000      -1.036791       -28.2125
  40   1.0000      -0.994169       -27.0527
  41   1.0000      -0.984478       -26.7890
  42   1.0000      -0.928546       -25.2670
  43   1.0000      -0.917362       -24.9627
  44   1.0000      -0.911727       -24.8094
  45   1.0000      -0.911672       -24.8079
  46   1.0000      -0.902304       -24.5529
  47   1.0000      -0.901581       -24.5333
  48   1.0000      -0.794031       -21.6067
  49   1.0000      -0.756341       -20.5811
  50   1.0000      -0.691263       -18.8102
  51   1.0000      -0.688221       -18.7274
  52   1.0000      -0.679623       -18.4935
  53   1.0000      -0.666418       -18.1342
  54   1.0000      -0.643947       -17.5227
  55   1.0000      -0.624925       -17.0051
  56   1.0000      -0.603005       -16.4086
  57   1.0000      -0.593318       -16.1450
  58   1.0000      -0.582181       -15.8419
  59   1.0000      -0.575098       -15.6492
  60   1.0000      -0.569846       -15.5063
  61   1.0000      -0.561590       -15.2816
  62   1.0000      -0.555159       -15.1067
  63   1.0000      -0.546880       -14.8814
  64   1.0000      -0.539299       -14.6751
  65   1.0000      -0.521639       -14.1945
  66   1.0000      -0.518005       -14.0956
  67   1.0000      -0.483640       -13.1605
  68   1.0000      -0.466973       -12.7070
  69   1.0000      -0.461308       -12.5528
  70   1.0000      -0.434180       -11.8146
  71   1.0000      -0.430819       -11.7232
  72   1.0000      -0.428958       -11.6725
  73   1.0000      -0.420080       -11.4310
  74   1.0000      -0.418680       -11.3929
  75   1.0000      -0.417901       -11.3717
  76   1.0000      -0.380340       -10.3496
  77   0.0000       0.010229         0.2783
  78   0.0000       0.020581         0.5600
  79   0.0000       0.022407         0.6097
  80   0.0000       0.027964         0.7609
  81   0.0000       0.034571         0.9407

                 SPIN DOWN ORBITALS
  NO   OCC          E(Eh)            E(eV)
   0   1.0000    -261.555876     -7117.2972
   1   1.0000    -104.781956     -2851.2620
   2   1.0000    -104.777414     -2851.1384
   3   1.0000    -104.777037     -2851.1281
   4   1.0000     -32.065229      -872.5392
   5   1.0000     -27.543210      -749.4888
   6   1.0000     -27.543118      -749.4863
   7   1.0000     -27.542802      -749.4777
   8   1.0000     -20.571338      -559.7746
   9   1.0000     -11.402681      -310.2827
  10   1.0000     -11.326876      -308.2200
  11   1.0000     -11.269138      -306.6488
  12   1.0000     -11.268512      -306.6318
  13   1.0000     -11.263563      -306.4971
  14   1.0000     -11.257744      -306.3388
  15   1.0000     -11.250304      -306.1363
  16   1.0000     -11.246384      -306.0297
  17   1.0000     -10.508516      -285.9513
  18   1.0000     -10.503964      -285.8274
  19   1.0000     -10.503544      -285.8160
  20   1.0000      -7.974395      -216.9943
  21   1.0000      -7.973822      -216.9787
  22   1.0000      -7.973762      -216.9771
  23   1.0000      -7.969887      -216.8716
  24   1.0000      -7.969515      -216.8615
  25   1.0000      -7.969187      -216.8526
  26   1.0000      -7.969103      -216.8503
  27   1.0000      -7.968763      -216.8411
  28   1.0000      -7.968672      -216.8386
  29   1.0000      -4.140207      -112.6608
  30   1.0000      -2.661928       -72.4348
  31   1.0000      -2.661888       -72.4336
  32   1.0000      -2.661086       -72.4118
  33   1.0000      -1.408853       -38.3368
  34   1.0000      -1.160930       -31.5905
  35   1.0000      -1.083713       -29.4893
  36   1.0000      -1.040526       -28.3142
  37   1.0000      -1.036122       -28.1943
  38   1.0000      -1.027676       -27.9645
  39   1.0000      -1.024813       -27.8866
  40   1.0000      -0.993587       -27.0369
  41   1.0000      -0.984190       -26.7812
  42   1.0000      -0.918924       -25.0052
  43   1.0000      -0.807498       -21.9731
  44   1.0000      -0.756695       -20.5907
  45   1.0000      -0.693438       -18.8694
  46   1.0000      -0.687629       -18.7113
  47   1.0000      -0.679735       -18.4965
  48   1.0000      -0.665766       -18.1164
  49   1.0000      -0.643795       -17.5186
  50   1.0000      -0.624433       -16.9917
  51   1.0000      -0.602248       -16.3880
  52   1.0000      -0.593363       -16.1462
  53   1.0000      -0.582012       -15.8373
  54   1.0000      -0.574279       -15.6269
  55   1.0000      -0.569598       -15.4995
  56   1.0000      -0.561415       -15.2769
  57   1.0000      -0.554867       -15.0987
  58   1.0000      -0.546092       -14.8599
  59   1.0000      -0.535703       -14.5772
  60   1.0000      -0.518492       -14.1089
  61   1.0000      -0.510904       -13.9024
  62   1.0000      -0.482654       -13.1337
  63   1.0000      -0.472766       -12.8646
  64   1.0000      -0.470312       -12.7978
  65   1.0000      -0.443626       -12.0717
  66   1.0000      -0.440340       -11.9823
  67   1.0000      -0.437942       -11.9170
  68   1.0000      -0.424055       -11.5391
  69   1.0000      -0.418098       -11.3770
  70   1.0000      -0.404320       -11.0021
  71   1.0000      -0.377661       -10.2767
  72   0.0000       0.010222         0.2781
  73   0.0000       0.020549         0.5592
  74   0.0000       0.022399         0.6095
  75   0.0000       0.027653         0.7525
  76   0.0000       0.034060         0.9268

E(0)                                       ...  -3028.432911101
E(0)                                       ...  -3028.432911101
E(CORR)(strong-pairs)                      ...     -2.874159360
E(CORR)(weak-pairs)                        ...     -0.036651825
E(CORR)(corrected)                         ...     -2.910811185
E(TOT)                                     ...  -3031.343722286
E(CCSD(T))                                 ...  -3031.463909165
FINAL SINGLE POINT ENERGY     -3031.463909165407

DIPOLE MOMENT
-------------
                                X             Y             Z
Electronic contribution:     41.59360       5.20708       1.23740
Nuclear contribution   :    -45.94206      -5.84973      -1.72304
                        -----------------------------------------
Total Dipole Moment    :     -4.34845      -0.64266      -0.48564
                        -----------------------------------------
Magnitude (a.u.)       :      4.42243
Magnitude (Debye)      :     11.24093

Rotational constants in cm-1:     0.019179     0.011158     0.010472
Rotational constants in MHz :   574.961706   334.504430   313.931131

                             ****ORCA TERMINATED NORMALLY****
TOTAL RUN TIME: 0 days 20 hours 18 minutes 47 seconds 980 msec
