                         Program Version 4.1.2  - RELEASE  -
|  1> ! aug-cc-pVTZ aug-cc-pVTZ/C DLPNO-CCSD(T1) TightSCF NormalPNO UNO MiniPrint AutoAux
|  2> %pal nproc 10 end
|  3> %maxcore 20000
|  4> %mdci
|  5>      density none
|  6> end
|  7>
|  8> * xyz 0 6
|  9>  O     -0.29855600     -0.35865500     -0.69280800
| 10>  C     -1.41983700     -1.20719500     -0.48499600
| 11>  C     -2.65312800     -0.20820500     -0.03386700
| 12>  C     -2.04813900      1.14192300     -0.23483900
| 13>  C     -1.99247800      1.75636200     -1.57047200
| 14> Fe      1.35398800      0.03077900      0.00838900
| 15> Cl      1.65032300      2.10110300     -0.77248600
| 16>  C     -1.58523300      1.93900400      0.90581500
| 17> Cl      2.82324000     -1.47886900     -0.59656500
| 18> Cl      1.08588300      0.11017800      2.23886200
| 19>  H     -3.44380400     -0.33353100     -0.78252500
| 20>  H     -2.46179100      2.17644700      1.52901600
| 21>  H     -0.92547500      1.33934100      1.55269900
| 22>  H     -1.07150300      2.85242000      0.60664200
| 23>  H     -2.61791300      2.66384700     -1.54558400
| 24>  H     -0.96300400      2.10051900     -1.74749100
| 25>  H     -2.32667700      1.10016200     -2.37265600
| 26>  C     -3.22797900     -0.45686400      1.36112100
| 27>  H     -4.03467400      0.25082900      1.58365300
| 28>  H     -3.65298200     -1.46213600      1.41053800
| 29>  H     -2.47169200     -0.37497000      2.14494600
| 30>  C     -1.10677800     -2.26255200      0.56948100
| 31>  H     -1.94220800     -2.95324300      0.72039400
| 32>  H     -0.24755700     -2.83897900      0.20854700
| 33>  H     -0.82497100     -1.81570500      1.52412800
| 34>  C     -1.76911400     -1.86650500     -1.81809000
| 35>  H     -0.91758500     -2.47265600     -2.14221000
| 36>  H     -2.64920800     -2.51274200     -1.72504100
| 37>  H     -1.95866700     -1.11743700     -2.59242400
| 38> *
| 39>
| 40>
| 41>                          ****END OF INPUT****

CARTESIAN COORDINATES (ANGSTROEM)
---------------------------------
  O     -0.298556   -0.358655   -0.692808
  C     -1.419837   -1.207195   -0.484996
  C     -2.653128   -0.208205   -0.033867
  C     -2.048139    1.141923   -0.234839
  C     -1.992478    1.756362   -1.570472
  Fe     1.353988    0.030779    0.008389
  Cl     1.650323    2.101103   -0.772486
  C     -1.585233    1.939004    0.905815
  Cl     2.823240   -1.478869   -0.596565
  Cl     1.085883    0.110178    2.238862
  H     -3.443804   -0.333531   -0.782525
  H     -2.461791    2.176447    1.529016
  H     -0.925475    1.339341    1.552699
  H     -1.071503    2.852420    0.606642
  H     -2.617913    2.663847   -1.545584
  H     -0.963004    2.100519   -1.747491
  H     -2.326677    1.100162   -2.372656
  C     -3.227979   -0.456864    1.361121
  H     -4.034674    0.250829    1.583653
  H     -3.652982   -1.462136    1.410538
  H     -2.471692   -0.374970    2.144946
  C     -1.106778   -2.262552    0.569481
  H     -1.942208   -2.953243    0.720394
  H     -0.247557   -2.838979    0.208547
  H     -0.824971   -1.815705    1.524128
  C     -1.769114   -1.866505   -1.818090
  H     -0.917585   -2.472656   -2.142210
  H     -2.649208   -2.512742   -1.725041
  H     -1.958667   -1.117437   -2.592424

ORBITAL ENERGIES
----------------
                 SPIN UP ORBITALS
  NO   OCC          E(Eh)            E(eV)
   0   1.0000    -261.543001     -7116.9469
   1   1.0000    -104.774687     -2851.0642
   2   1.0000    -104.773403     -2851.0292
   3   1.0000    -104.767848     -2850.8781
   4   1.0000     -32.210839      -876.5015
   5   1.0000     -27.686877      -753.3982
   6   1.0000     -27.686585      -753.3903
   7   1.0000     -27.686175      -753.3791
   8   1.0000     -20.536651      -558.8307
   9   1.0000     -11.414931      -310.6161
  10   1.0000     -11.335928      -308.4663
  11   1.0000     -11.296058      -307.3814
  12   1.0000     -11.287994      -307.1619
  13   1.0000     -11.281049      -306.9730
  14   1.0000     -11.263633      -306.4990
  15   1.0000     -11.237368      -305.7843
  16   1.0000     -11.229916      -305.5816
  17   1.0000     -10.501281      -285.7544
  18   1.0000     -10.499912      -285.7171
  19   1.0000     -10.494404      -285.5672
  20   1.0000      -7.968180      -216.8252
  21   1.0000      -7.967263      -216.8002
  22   1.0000      -7.967235      -216.7995
  23   1.0000      -7.966771      -216.7869
  24   1.0000      -7.965980      -216.7653
  25   1.0000      -7.965874      -216.7625
  26   1.0000      -7.961175      -216.6346
  27   1.0000      -7.960536      -216.6172
  28   1.0000      -7.960442      -216.6146
  29   1.0000      -4.566341      -124.2565
  30   1.0000      -3.178891       -86.5020
  31   1.0000      -3.178417       -86.4891
  32   1.0000      -3.178115       -86.4809
  33   1.0000      -1.346859       -36.6499
  34   1.0000      -1.190668       -32.3997
  35   1.0000      -1.094369       -29.7793
  36   1.0000      -1.044523       -28.4229
  37   1.0000      -1.039916       -28.2975
  38   1.0000      -1.038170       -28.2500
  39   1.0000      -1.035133       -28.1674
  40   1.0000      -1.020257       -27.7626
  41   1.0000      -0.963561       -26.2198
  42   1.0000      -0.933326       -25.3971
  43   1.0000      -0.902754       -24.5652
  44   1.0000      -0.896056       -24.3829
  45   1.0000      -0.895855       -24.3774
  46   1.0000      -0.888767       -24.1846
  47   1.0000      -0.887853       -24.1597
  48   1.0000      -0.803052       -21.8522
  49   1.0000      -0.759464       -20.6661
  50   1.0000      -0.708310       -19.2741
  51   1.0000      -0.690453       -18.7882
  52   1.0000      -0.677087       -18.4245
  53   1.0000      -0.635581       -17.2950
  54   1.0000      -0.633564       -17.2402
  55   1.0000      -0.624961       -17.0060
  56   1.0000      -0.604894       -16.4600
  57   1.0000      -0.599665       -16.3177
  58   1.0000      -0.595872       -16.2145
  59   1.0000      -0.583069       -15.8661
  60   1.0000      -0.578631       -15.7454
  61   1.0000      -0.555534       -15.1168
  62   1.0000      -0.547977       -14.9112
  63   1.0000      -0.538268       -14.6470
  64   1.0000      -0.523876       -14.2554
  65   1.0000      -0.521586       -14.1931
  66   1.0000      -0.501678       -13.6514
  67   1.0000      -0.467569       -12.7232
  68   1.0000      -0.465011       -12.6536
  69   1.0000      -0.444987       -12.1087
  70   1.0000      -0.434450       -11.8220
  71   1.0000      -0.423968       -11.5368
  72   1.0000      -0.420045       -11.4300
  73   1.0000      -0.415896       -11.3171
  74   1.0000      -0.412306       -11.2194
  75   1.0000      -0.411197       -11.1892
  76   1.0000      -0.408588       -11.1183
  77   0.0000       0.003902         0.1062
  78   0.0000       0.011039         0.3004
  79   0.0000       0.019879         0.5409
  80   0.0000       0.020740         0.5644
  81   0.0000       0.030292         0.8243

                 SPIN DOWN ORBITALS
  NO   OCC          E(Eh)            E(eV)
   0   1.0000    -261.539461     -7116.8505
   1   1.0000    -104.773419     -2851.0297
   2   1.0000    -104.772157     -2850.9953
   3   1.0000    -104.766427     -2850.8394
   4   1.0000     -32.048815      -872.0926
   5   1.0000     -27.527012      -749.0481
   6   1.0000     -27.526764      -749.0413
   7   1.0000     -27.526105      -749.0234
   8   1.0000     -20.529932      -558.6478
   9   1.0000     -11.414951      -310.6166
  10   1.0000     -11.335670      -308.4593
  11   1.0000     -11.295941      -307.3782
  12   1.0000     -11.287978      -307.1615
  13   1.0000     -11.281078      -306.9737
  14   1.0000     -11.263638      -306.4992
  15   1.0000     -11.237283      -305.7820
  16   1.0000     -11.229888      -305.5808
  17   1.0000     -10.499908      -285.7170
  18   1.0000     -10.498568      -285.6805
  19   1.0000     -10.492885      -285.5259
  20   1.0000      -7.965708      -216.7579
  21   1.0000      -7.965374      -216.7488
  22   1.0000      -7.965285      -216.7464
  23   1.0000      -7.964486      -216.7247
  24   1.0000      -7.964014      -216.7118
  25   1.0000      -7.963912      -216.7090
  26   1.0000      -7.958910      -216.5729
  27   1.0000      -7.958089      -216.5506
  28   1.0000      -7.958023      -216.5488
  29   1.0000      -4.124245      -112.2264
  30   1.0000      -2.646260       -72.0084
  31   1.0000      -2.646059       -72.0029
  32   1.0000      -2.645313       -71.9826
  33   1.0000      -1.329249       -36.1707
  34   1.0000      -1.189161       -32.3587
  35   1.0000      -1.091636       -29.7049
  36   1.0000      -1.037182       -28.2232
  37   1.0000      -1.030879       -28.0516
  38   1.0000      -1.022770       -27.8310
  39   1.0000      -1.017929       -27.6992
  40   1.0000      -1.014974       -27.6188
  41   1.0000      -0.962793       -26.1989
  42   1.0000      -0.931381       -25.3442
  43   1.0000      -0.806458       -21.9448
  44   1.0000      -0.765627       -20.8338
  45   1.0000      -0.709070       -19.2948
  46   1.0000      -0.690282       -18.7835
  47   1.0000      -0.677602       -18.4385
  48   1.0000      -0.636678       -17.3249
  49   1.0000      -0.634846       -17.2751
  50   1.0000      -0.623168       -16.9573
  51   1.0000      -0.605185       -16.4679
  52   1.0000      -0.598915       -16.2973
  53   1.0000      -0.594921       -16.1886
  54   1.0000      -0.582765       -15.8578
  55   1.0000      -0.576968       -15.7001
  56   1.0000      -0.555329       -15.1113
  57   1.0000      -0.545044       -14.8314
  58   1.0000      -0.537409       -14.6236
  59   1.0000      -0.521033       -14.1780
  60   1.0000      -0.516999       -14.0682
  61   1.0000      -0.498097       -13.5539
  62   1.0000      -0.467563       -12.7230
  63   1.0000      -0.463463       -12.6115
  64   1.0000      -0.450857       -12.2684
  65   1.0000      -0.442814       -12.0496
  66   1.0000      -0.434762       -11.8305
  67   1.0000      -0.429896       -11.6981
  68   1.0000      -0.429342       -11.6830
  69   1.0000      -0.409241       -11.1360
  70   1.0000      -0.400666       -10.9027
  71   1.0000      -0.398127       -10.8336
  72   0.0000       0.003826         0.1041
  73   0.0000       0.010726         0.2919
  74   0.0000       0.019860         0.5404
  75   0.0000       0.020725         0.5640
  76   0.0000       0.030323         0.8251

E(0)                                       ...  -3028.432044000
E(0)                                       ...  -3028.432044000
E(CORR)(strong-pairs)                      ...     -2.868906977
E(CORR)(weak-pairs)                        ...     -0.035984766
E(CORR)(corrected)                         ...     -2.904891743
E(TOT)                                     ...  -3031.336935742
E(CCSD(T))                                 ...  -3031.454262830
FINAL SINGLE POINT ENERGY     -3031.454262830405

DIPOLE MOMENT
-------------
                                X             Y             Z
Electronic contribution:     39.02915       5.03668       2.39568
Nuclear contribution   :    -43.98363      -4.40245      -2.80849
                        -----------------------------------------
Total Dipole Moment    :     -4.95448       0.63423      -0.41281
                        -----------------------------------------
Magnitude (a.u.)       :      5.01194
Magnitude (Debye)      :     12.73934

Rotational constants in cm-1:     0.018863     0.012134     0.010945
Rotational constants in MHz :   565.510154   363.767035   328.108706

                             ****ORCA TERMINATED NORMALLY****
TOTAL RUN TIME: 0 days 20 hours 55 minutes 6 seconds 938 msec
