                         Program Version 4.1.2  - RELEASE  -
|  1> ! aug-cc-pVTZ aug-cc-pVTZ/C DLPNO-CCSD(T1) TightSCF NormalPNO UNO MiniPrint AutoAux
|  2> %pal nproc 10 end
|  3> %maxcore 20000
|  4> %mdci
|  5>      density none
|  6> end
|  7>
|  8> * xyz 0 6
|  9>  O     -0.33494700     -0.08680900     -0.40711300
| 10>  C     -1.25624900     -1.06099400     -0.24913700
| 11>  C     -2.51601500     -0.42899200      0.70142100
| 12>  C     -2.93801200      0.72071200     -0.04047100
| 13>  C     -4.05272600      0.63828500     -1.01736000
| 14> Fe      1.48785100      0.17305100     -0.08352100
| 15> Cl      1.76534800      2.23926600     -0.80720400
| 16>  C     -2.16861800      1.94932900      0.03574400
| 17> Cl      2.53983600     -1.40544600     -1.20018500
| 18> Cl      1.79969700      0.02053800      2.10583000
| 19>  H     -3.27168600     -1.21831200      0.67340300
| 20>  H     -2.57055800      2.78111500     -0.54325100
| 21>  H     -1.90169700      2.24771900      1.05303800
| 22>  H     -1.18525500      1.60688400     -0.39505300
| 23>  H     -4.88802300      1.22692700     -0.60556100
| 24>  H     -3.78675900      1.11837000     -1.96677800
| 25>  H     -4.40294800     -0.38003500     -1.18992600
| 26>  C     -1.99812600     -0.16030600      2.12101500
| 27>  H     -2.68437000      0.50178500      2.65869700
| 28>  H     -1.93546600     -1.09529600      2.67956700
| 29>  H     -1.00418500      0.29146800      2.11129800
| 30>  C     -0.73271700     -2.26443200      0.55455900
| 31>  H     -1.53004200     -2.97969300      0.77859200
| 32>  H      0.01947700     -2.75828200     -0.06921000
| 33>  H     -0.24388800     -1.95275900      1.47755300
| 34>  C     -1.78999800     -1.52404900     -1.61082700
| 35>  H     -0.97535900     -2.04482500     -2.12246700
| 36>  H     -2.63558800     -2.21365800     -1.51525400
| 37>  H     -2.07640900     -0.67764600     -2.23935500
| 38> *
| 39>
| 40>
| 41>                          ****END OF INPUT****

CARTESIAN COORDINATES (ANGSTROEM)
---------------------------------
  O     -0.334947   -0.086809   -0.407113
  C     -1.256249   -1.060994   -0.249137
  C     -2.516015   -0.428992    0.701421
  C     -2.938012    0.720712   -0.040471
  C     -4.052726    0.638285   -1.017360
  Fe     1.487851    0.173051   -0.083521
  Cl     1.765348    2.239266   -0.807204
  C     -2.168618    1.949329    0.035744
  Cl     2.539836   -1.405446   -1.200185
  Cl     1.799697    0.020538    2.105830
  H     -3.271686   -1.218312    0.673403
  H     -2.570558    2.781115   -0.543251
  H     -1.901697    2.247719    1.053038
  H     -1.185255    1.606884   -0.395053
  H     -4.888023    1.226927   -0.605561
  H     -3.786759    1.118370   -1.966778
  H     -4.402948   -0.380035   -1.189926
  C     -1.998126   -0.160306    2.121015
  H     -2.684370    0.501785    2.658697
  H     -1.935466   -1.095296    2.679567
  H     -1.004185    0.291468    2.111298
  C     -0.732717   -2.264432    0.554559
  H     -1.530042   -2.979693    0.778592
  H      0.019477   -2.758282   -0.069210
  H     -0.243888   -1.952759    1.477553
  C     -1.789998   -1.524049   -1.610827
  H     -0.975359   -2.044825   -2.122467
  H     -2.635588   -2.213658   -1.515254
  H     -2.076409   -0.677646   -2.239355

ORBITAL ENERGIES
----------------
                 SPIN UP ORBITALS
  NO   OCC          E(Eh)            E(eV)
   0   1.0000    -261.539565     -7116.8534
   1   1.0000    -104.767645     -2850.8726
   2   1.0000    -104.766565     -2850.8432
   3   1.0000    -104.764832     -2850.7960
   4   1.0000     -32.207496      -876.4105
   5   1.0000     -27.683378      -753.3030
   6   1.0000     -27.683204      -753.2983
   7   1.0000     -27.682970      -753.2919
   8   1.0000     -20.537510      -558.8541
   9   1.0000     -11.398704      -310.1745
  10   1.0000     -11.348791      -308.8163
  11   1.0000     -11.307032      -307.6800
  12   1.0000     -11.291512      -307.2577
  13   1.0000     -11.277168      -306.8673
  14   1.0000     -11.254956      -306.2629
  15   1.0000     -11.244918      -305.9898
  16   1.0000     -11.234345      -305.7021
  17   1.0000     -10.494246      -285.5629
  18   1.0000     -10.493132      -285.5326
  19   1.0000     -10.491437      -285.4865
  20   1.0000      -7.961121      -216.6331
  21   1.0000      -7.960297      -216.6107
  22   1.0000      -7.960238      -216.6091
  23   1.0000      -7.959962      -216.6016
  24   1.0000      -7.959233      -216.5817
  25   1.0000      -7.959134      -216.5791
  26   1.0000      -7.958272      -216.5556
  27   1.0000      -7.957537      -216.5356
  28   1.0000      -7.957459      -216.5335
  29   1.0000      -4.562974      -124.1648
  30   1.0000      -3.175485       -86.4093
  31   1.0000      -3.175131       -86.3997
  32   1.0000      -3.174586       -86.3849
  33   1.0000      -1.371035       -37.3078
  34   1.0000      -1.203318       -32.7439
  35   1.0000      -1.088626       -29.6230
  36   1.0000      -1.046806       -28.4850
  37   1.0000      -1.038603       -28.2618
  38   1.0000      -1.033398       -28.1202
  39   1.0000      -1.031515       -28.0690
  40   1.0000      -1.021275       -27.7903
  41   1.0000      -0.968054       -26.3421
  42   1.0000      -0.933165       -25.3927
  43   1.0000      -0.905293       -24.6343
  44   1.0000      -0.892573       -24.2882
  45   1.0000      -0.892500       -24.2862
  46   1.0000      -0.884086       -24.0572
  47   1.0000      -0.883750       -24.0480
  48   1.0000      -0.801881       -21.8203
  49   1.0000      -0.769179       -20.9304
  50   1.0000      -0.714611       -19.4456
  51   1.0000      -0.698481       -19.0066
  52   1.0000      -0.677188       -18.4272
  53   1.0000      -0.649682       -17.6787
  54   1.0000      -0.648441       -17.6450
  55   1.0000      -0.635609       -17.2958
  56   1.0000      -0.610577       -16.6146
  57   1.0000      -0.600701       -16.3459
  58   1.0000      -0.591400       -16.0928
  59   1.0000      -0.584126       -15.8949
  60   1.0000      -0.572943       -15.5906
  61   1.0000      -0.562791       -15.3143
  62   1.0000      -0.554162       -15.0795
  63   1.0000      -0.538443       -14.6518
  64   1.0000      -0.531601       -14.4656
  65   1.0000      -0.514412       -13.9979
  66   1.0000      -0.500739       -13.6258
  67   1.0000      -0.463824       -12.6213
  68   1.0000      -0.457996       -12.4627
  69   1.0000      -0.439585       -11.9617
  70   1.0000      -0.429250       -11.6805
  71   1.0000      -0.418513       -11.3883
  72   1.0000      -0.414364       -11.2754
  73   1.0000      -0.408670       -11.1205
  74   1.0000      -0.405989       -11.0475
  75   1.0000      -0.405191       -11.0258
  76   1.0000      -0.404441       -11.0054
  77   0.0000      -0.001616        -0.0440
  78   0.0000       0.001230         0.0335
  79   0.0000       0.017059         0.4642
  80   0.0000       0.017750         0.4830
  81   0.0000       0.027145         0.7386

                 SPIN DOWN ORBITALS
  NO   OCC          E(Eh)            E(eV)
   0   1.0000    -261.536017     -7116.7568
   1   1.0000    -104.766285     -2850.8356
   2   1.0000    -104.765216     -2850.8065
   3   1.0000    -104.763418     -2850.7575
   4   1.0000     -32.045431      -872.0005
   5   1.0000     -27.523509      -748.9528
   6   1.0000     -27.523340      -748.9482
   7   1.0000     -27.522856      -748.9350
   8   1.0000     -20.531799      -558.6987
   9   1.0000     -11.398680      -310.1739
  10   1.0000     -11.348666      -308.8129
  11   1.0000     -11.307037      -307.6801
  12   1.0000     -11.291374      -307.2539
  13   1.0000     -11.277173      -306.8675
  14   1.0000     -11.254982      -306.2636
  15   1.0000     -11.244821      -305.9871
  16   1.0000     -11.234308      -305.7011
  17   1.0000     -10.492783      -285.5231
  18   1.0000     -10.491685      -285.4933
  19   1.0000     -10.489921      -285.4453
  20   1.0000      -7.958675      -216.5665
  21   1.0000      -7.958133      -216.5518
  22   1.0000      -7.958057      -216.5497
  23   1.0000      -7.957643      -216.5385
  24   1.0000      -7.957021      -216.5215
  25   1.0000      -7.956914      -216.5186
  26   1.0000      -7.955874      -216.4903
  27   1.0000      -7.955193      -216.4718
  28   1.0000      -7.955118      -216.4698
  29   1.0000      -4.120727      -112.1307
  30   1.0000      -2.642618       -71.9093
  31   1.0000      -2.642539       -71.9071
  32   1.0000      -2.641622       -71.8822
  33   1.0000      -1.356519       -36.9127
  34   1.0000      -1.202298       -32.7162
  35   1.0000      -1.086170       -29.5562
  36   1.0000      -1.045901       -28.4604
  37   1.0000      -1.024502       -27.8781
  38   1.0000      -1.020293       -27.7636
  39   1.0000      -1.013175       -27.5699
  40   1.0000      -1.011511       -27.5246
  41   1.0000      -0.967375       -26.3236
  42   1.0000      -0.932716       -25.3805
  43   1.0000      -0.807186       -21.9647
  44   1.0000      -0.776294       -21.1240
  45   1.0000      -0.715266       -19.4634
  46   1.0000      -0.697848       -18.9894
  47   1.0000      -0.677354       -18.4317
  48   1.0000      -0.651383       -17.7250
  49   1.0000      -0.647831       -17.6284
  50   1.0000      -0.634774       -17.2731
  51   1.0000      -0.610622       -16.6159
  52   1.0000      -0.600625       -16.3438
  53   1.0000      -0.591086       -16.0843
  54   1.0000      -0.583008       -15.8645
  55   1.0000      -0.571675       -15.5561
  56   1.0000      -0.562493       -15.3062
  57   1.0000      -0.554123       -15.0785
  58   1.0000      -0.538419       -14.6511
  59   1.0000      -0.529582       -14.4107
  60   1.0000      -0.510066       -13.8796
  61   1.0000      -0.494821       -13.4648
  62   1.0000      -0.462137       -12.5754
  63   1.0000      -0.459045       -12.4912
  64   1.0000      -0.445961       -12.1352
  65   1.0000      -0.435399       -11.8478
  66   1.0000      -0.428854       -11.6697
  67   1.0000      -0.425668       -11.5830
  68   1.0000      -0.424671       -11.5559
  69   1.0000      -0.404119       -10.9966
  70   1.0000      -0.395945       -10.7742
  71   1.0000      -0.391268       -10.6470
  72   0.0000      -0.001710        -0.0465
  73   0.0000       0.001211         0.0330
  74   0.0000       0.017052         0.4640
  75   0.0000       0.017735         0.4826
  76   0.0000       0.027160         0.7391

E(0)                                       ...  -3028.425614626
E(0)                                       ...  -3028.425614626
E(CORR)(strong-pairs)                      ...     -2.874021114
E(CORR)(weak-pairs)                        ...     -0.035327446
E(CORR)(corrected)                         ...     -2.909348560
E(TOT)                                     ...  -3031.334963185
E(CCSD(T))                                 ...  -3031.453948344
FINAL SINGLE POINT ENERGY     -3031.453948343828

DIPOLE MOMENT
-------------
                                X             Y             Z
Electronic contribution:     41.80671       7.08398      -0.98429
Nuclear contribution   :    -47.69911      -7.16095       0.92266
                        -----------------------------------------
Total Dipole Moment    :     -5.89240      -0.07697      -0.06163
                        -----------------------------------------
Magnitude (a.u.)       :      5.89323
Magnitude (Debye)      :     14.97939

Rotational constants in cm-1:     0.019905     0.010486     0.009992
Rotational constants in MHz :   596.748396   314.376105   299.543453

                             ****ORCA TERMINATED NORMALLY****
TOTAL RUN TIME: 0 days 20 hours 23 minutes 47 seconds 879 msec
