                         Program Version 4.1.2  - RELEASE  -
|  1> ! aug-cc-pVTZ aug-cc-pVTZ/C DLPNO-CCSD(T1) TightSCF NormalPNO UNO MiniPrint AutoAux
|  2> %pal nproc 10 end
|  3> %maxcore 20000
|  4> %mdci
|  5>      density none
|  6> end
|  7>
|  8> * xyz 0 6
|  9>  O     -0.29696400     -0.17875300     -0.72633600
| 10>  C     -1.16084700     -1.10761800     -0.61446700
| 11>  C     -3.09397600     -0.06696800      0.22371800
| 12>  C     -2.41336700      1.03560800     -0.18215900
| 13>  C     -2.52406700      1.56584100     -1.57910900
| 14> Fe      1.45561400      0.09324300      0.04154400
| 15> Cl      2.09121700      2.00934700     -0.79257800
| 16>  C     -1.56810600      1.86514700      0.73360200
| 17> Cl      2.53404000     -1.68225100     -0.66497100
| 18> Cl      1.26337600      0.10735000      2.23602100
| 19>  H     -3.76858100     -0.52544700     -0.49678500
| 20>  H     -2.16445100      2.72414000      1.07304400
| 21>  H     -1.22084500      1.33092800      1.61773900
| 22>  H     -0.69990800      2.27169900      0.20595100
| 23>  H     -2.83081200      2.61878400     -1.54005000
| 24>  H     -1.54304800      1.54475500     -2.06928200
| 25>  H     -3.25330300      1.02263800     -2.18515400
| 26>  C     -3.30999700     -0.48037100      1.65627200
| 27>  H     -4.19840700      0.02924100      2.05279100
| 28>  H     -3.49604300     -1.55442600      1.74556700
| 29>  H     -2.47161900     -0.22414800      2.30822400
| 30>  C     -1.03302800     -2.09521900      0.50939900
| 31>  H     -1.91211500     -2.73181300      0.61040600
| 32>  H     -0.17536100     -2.72975900      0.23970200
| 33>  H     -0.79015800     -1.61204800      1.45567500
| 34>  C     -1.78805200     -1.60143600     -1.89124700
| 35>  H     -1.03125800     -2.25361000     -2.35059800
| 36>  H     -2.68867800     -2.19217900     -1.71779100
| 37>  H     -1.98377600     -0.78851100     -2.58895700
| 38> *
| 39>
| 40>
| 41>                          ****END OF INPUT****

CARTESIAN COORDINATES (ANGSTROEM)
---------------------------------
  O     -0.296964   -0.178753   -0.726336
  C     -1.160847   -1.107618   -0.614467
  C     -3.093976   -0.066968    0.223718
  C     -2.413367    1.035608   -0.182159
  C     -2.524067    1.565841   -1.579109
  Fe     1.455614    0.093243    0.041544
  Cl     2.091217    2.009347   -0.792578
  C     -1.568106    1.865147    0.733602
  Cl     2.534040   -1.682251   -0.664971
  Cl     1.263376    0.107350    2.236021
  H     -3.768581   -0.525447   -0.496785
  H     -2.164451    2.724140    1.073044
  H     -1.220845    1.330928    1.617739
  H     -0.699908    2.271699    0.205951
  H     -2.830812    2.618784   -1.540050
  H     -1.543048    1.544755   -2.069282
  H     -3.253303    1.022638   -2.185154
  C     -3.309997   -0.480371    1.656272
  H     -4.198407    0.029241    2.052791
  H     -3.496043   -1.554426    1.745567
  H     -2.471619   -0.224148    2.308224
  C     -1.033028   -2.095219    0.509399
  H     -1.912115   -2.731813    0.610406
  H     -0.175361   -2.729759    0.239702
  H     -0.790158   -1.612048    1.455675
  C     -1.788052   -1.601436   -1.891247
  H     -1.031258   -2.253610   -2.350598
  H     -2.688678   -2.192179   -1.717791
  H     -1.983776   -0.788511   -2.588957

ORBITAL ENERGIES
----------------
                 SPIN UP ORBITALS
  NO   OCC          E(Eh)            E(eV)
   0   1.0000    -261.568464     -7117.6398
   1   1.0000    -104.788218     -2851.4324
   2   1.0000    -104.785583     -2851.3607
   3   1.0000    -104.784640     -2851.3350
   4   1.0000     -32.236239      -877.1927
   5   1.0000     -27.712561      -754.0971
   6   1.0000     -27.711673      -754.0729
   7   1.0000     -27.711513      -754.0686
   8   1.0000     -20.595660      -560.4364
   9   1.0000     -11.418129      -310.7031
  10   1.0000     -11.293612      -307.3148
  11   1.0000     -11.272696      -306.7457
  12   1.0000     -11.266689      -306.5822
  13   1.0000     -11.254956      -306.2629
  14   1.0000     -11.249598      -306.1171
  15   1.0000     -11.247883      -306.0705
  16   1.0000     -11.239515      -305.8428
  17   1.0000     -10.514892      -286.1248
  18   1.0000     -10.512222      -286.0521
  19   1.0000     -10.511236      -286.0253
  20   1.0000      -7.981744      -217.1943
  21   1.0000      -7.980955      -217.1728
  22   1.0000      -7.980915      -217.1717
  23   1.0000      -7.979099      -217.1223
  24   1.0000      -7.978317      -217.1010
  25   1.0000      -7.978241      -217.0990
  26   1.0000      -7.978033      -217.0933
  27   1.0000      -7.977355      -217.0749
  28   1.0000      -7.977294      -217.0732
  29   1.0000      -4.591313      -124.9360
  30   1.0000      -3.204334       -87.1944
  31   1.0000      -3.202899       -87.1553
  32   1.0000      -3.202662       -87.1489
  33   1.0000      -1.445576       -39.3361
  34   1.0000      -1.143552       -31.1176
  35   1.0000      -1.095712       -29.8159
  36   1.0000      -1.060825       -28.8665
  37   1.0000      -1.055317       -28.7166
  38   1.0000      -1.052973       -28.6529
  39   1.0000      -1.029050       -28.0019
  40   1.0000      -1.006494       -27.3881
  41   1.0000      -0.969907       -26.3925
  42   1.0000      -0.936633       -25.4871
  43   1.0000      -0.920472       -25.0473
  44   1.0000      -0.920346       -25.0439
  45   1.0000      -0.910236       -24.7688
  46   1.0000      -0.909992       -24.7621
  47   1.0000      -0.908772       -24.7289
  48   1.0000      -0.804346       -21.8874
  49   1.0000      -0.741859       -20.1870
  50   1.0000      -0.702022       -19.1030
  51   1.0000      -0.695293       -18.9199
  52   1.0000      -0.687615       -18.7109
  53   1.0000      -0.665077       -18.0977
  54   1.0000      -0.632350       -17.2071
  55   1.0000      -0.620362       -16.8809
  56   1.0000      -0.603825       -16.4309
  57   1.0000      -0.599584       -16.3155
  58   1.0000      -0.583570       -15.8797
  59   1.0000      -0.576921       -15.6988
  60   1.0000      -0.564229       -15.3535
  61   1.0000      -0.560107       -15.2413
  62   1.0000      -0.551861       -15.0169
  63   1.0000      -0.546926       -14.8826
  64   1.0000      -0.537408       -14.6236
  65   1.0000      -0.526848       -14.3363
  66   1.0000      -0.505791       -13.7633
  67   1.0000      -0.494566       -13.4578
  68   1.0000      -0.472998       -12.8709
  69   1.0000      -0.468929       -12.7602
  70   1.0000      -0.441263       -12.0074
  71   1.0000      -0.435787       -11.8584
  72   1.0000      -0.434363       -11.8196
  73   1.0000      -0.425729       -11.5847
  74   1.0000      -0.424253       -11.5445
  75   1.0000      -0.423796       -11.5321
  76   1.0000      -0.367308        -9.9950
  77   0.0000       0.012206         0.3321
  78   0.0000       0.022799         0.6204
  79   0.0000       0.023306         0.6342
  80   0.0000       0.030360         0.8261
  81   0.0000       0.039046         1.0625

                 SPIN DOWN ORBITALS
  NO   OCC          E(Eh)            E(eV)
   0   1.0000    -261.564900     -7117.5428
   1   1.0000    -104.786763     -2851.3928
   2   1.0000    -104.784072     -2851.3196
   3   1.0000    -104.783142     -2851.2943
   4   1.0000     -32.074215      -872.7837
   5   1.0000     -27.552141      -749.7319
   6   1.0000     -27.552093      -749.7306
   7   1.0000     -27.551874      -749.7246
   8   1.0000     -20.591715      -560.3291
   9   1.0000     -11.418000      -310.6996
  10   1.0000     -11.293596      -307.3144
  11   1.0000     -11.272589      -306.7427
  12   1.0000     -11.266680      -306.5819
  13   1.0000     -11.254837      -306.2597
  14   1.0000     -11.249595      -306.1171
  15   1.0000     -11.247896      -306.0708
  16   1.0000     -11.239539      -305.8434
  17   1.0000     -10.513336      -286.0824
  18   1.0000     -10.510607      -286.0082
  19   1.0000     -10.509642      -285.9819
  20   1.0000      -7.979237      -217.1261
  21   1.0000      -7.978573      -217.1080
  22   1.0000      -7.978516      -217.1064
  23   1.0000      -7.976491      -217.0514
  24   1.0000      -7.975839      -217.0336
  25   1.0000      -7.975743      -217.0310
  26   1.0000      -7.975627      -217.0278
  27   1.0000      -7.974802      -217.0054
  28   1.0000      -7.974717      -217.0031
  29   1.0000      -4.149087      -112.9024
  30   1.0000      -2.670683       -72.6730
  31   1.0000      -2.670656       -72.6722
  32   1.0000      -2.670128       -72.6579
  33   1.0000      -1.435641       -39.0658
  34   1.0000      -1.143026       -31.1033
  35   1.0000      -1.093150       -29.7461
  36   1.0000      -1.045684       -28.4545
  37   1.0000      -1.033401       -28.1203
  38   1.0000      -1.031242       -28.0615
  39   1.0000      -1.028593       -27.9894
  40   1.0000      -1.005667       -27.3656
  41   1.0000      -0.969800       -26.3896
  42   1.0000      -0.909674       -24.7535
  43   1.0000      -0.817817       -22.2539
  44   1.0000      -0.741913       -20.1885
  45   1.0000      -0.704837       -19.1796
  46   1.0000      -0.694892       -18.9090
  47   1.0000      -0.686214       -18.6728
  48   1.0000      -0.664950       -18.0942
  49   1.0000      -0.632259       -17.2046
  50   1.0000      -0.619902       -16.8684
  51   1.0000      -0.603466       -16.4211
  52   1.0000      -0.599529       -16.3140
  53   1.0000      -0.583241       -15.8708
  54   1.0000      -0.576423       -15.6853
  55   1.0000      -0.563871       -15.3437
  56   1.0000      -0.559944       -15.2368
  57   1.0000      -0.549439       -14.9510
  58   1.0000      -0.546400       -14.8683
  59   1.0000      -0.536421       -14.5968
  60   1.0000      -0.516818       -14.0633
  61   1.0000      -0.505748       -13.7621
  62   1.0000      -0.494479       -13.4555
  63   1.0000      -0.479172       -13.0389
  64   1.0000      -0.477762       -13.0006
  65   1.0000      -0.448889       -12.2149
  66   1.0000      -0.445793       -12.1306
  67   1.0000      -0.443477       -12.0676
  68   1.0000      -0.427877       -11.6431
  69   1.0000      -0.424459       -11.5501
  70   1.0000      -0.409276       -11.1370
  71   1.0000      -0.366050        -9.9607
  72   0.0000       0.012194         0.3318
  73   0.0000       0.022774         0.6197
  74   0.0000       0.023285         0.6336
  75   0.0000       0.030337         0.8255
  76   0.0000       0.038947         1.0598

E(0)                                       ...  -3028.442835451
E(0)                                       ...  -3028.442835451
E(CORR)(strong-pairs)                      ...     -2.871479179
E(CORR)(weak-pairs)                        ...     -0.036133529
E(CORR)(corrected)                         ...     -2.907612708
E(TOT)                                     ...  -3031.350448159
E(CCSD(T))                                 ...  -3031.469501157
FINAL SINGLE POINT ENERGY     -3031.469501157170

DIPOLE MOMENT
-------------
                                X             Y             Z
Electronic contribution:     42.67188       3.03419       2.21375
Nuclear contribution   :    -46.46800      -3.90313      -2.81702
                        -----------------------------------------
Total Dipole Moment    :     -3.79611      -0.86894      -0.60327
                        -----------------------------------------
Magnitude (a.u.)       :      3.94074
Magnitude (Debye)      :     10.01658

Rotational constants in cm-1:     0.019228     0.011039     0.010393
Rotational constants in MHz :   576.444997   330.946199   311.560415

                             ****ORCA TERMINATED NORMALLY****
TOTAL RUN TIME: 0 days 18 hours 8 minutes 58 seconds 725 msec
