                         Program Version 4.1.2  - RELEASE  -
|  1> ! aug-cc-pVTZ aug-cc-pVTZ/C DLPNO-CCSD(T1) TightSCF NormalPNO UNO MiniPrint AutoAux
|  2> %pal nproc 10 end
|  3> %maxcore 20000
|  4> %mdci
|  5>      density none
|  6> end
|  7>
|  8> * xyz 0 6
|  9>  O     -0.37845900     -0.08099500     -0.47054600
| 10>  C     -1.28963700     -1.07364000     -0.42120100
| 11>  C     -3.02329300     -0.01168400     -0.15818000
| 12>  C     -2.12308800      1.06694600     -0.25032000
| 13>  C     -1.90604100      1.76124700     -1.55202000
| 14> Fe      1.42116300      0.04986900      0.05313200
| 15> Cl      1.97982700      2.00320600     -0.80590500
| 16>  C     -1.60192500      1.75922100      0.96399900
| 17> Cl      2.38466300     -1.74751000     -0.77946600
| 18> Cl      1.41784300      0.06143600      2.26650600
| 19>  H     -3.55558200     -0.24670600     -1.07774200
| 20>  H     -2.39679200      2.43971300      1.30673400
| 21>  H     -1.37796400      1.07558400      1.78356500
| 22>  H     -0.71162000      2.34848700      0.73960300
| 23>  H     -2.57097900      2.63926500     -1.54754200
| 24>  H     -0.87724800      2.11283900     -1.65311000
| 25>  H     -2.18264300      1.14372500     -2.40868600
| 26>  C     -3.75360700     -0.38352800      1.10942900
| 27>  H     -4.64204300      0.24913600      1.23494900
| 28>  H     -4.10018500     -1.42060900      1.06871500
| 29>  H     -3.13980400     -0.26940800      2.00541400
| 30>  C     -1.21167300     -1.97401800      0.77998300
| 31>  H     -2.05633100     -2.66321900      0.84019400
| 32>  H     -0.29210500     -2.56459900      0.65647100
| 33>  H     -1.10529600     -1.41085500      1.70792200
| 34>  C     -1.52183000     -1.75651800     -1.74355700
| 35>  H     -0.59661900     -2.30530400     -1.96974200
| 36>  H     -2.35567800     -2.46202200     -1.70437900
| 37>  H     -1.67477400     -1.03404800     -2.54751800
| 38> *
| 39>
| 40>
| 41>                          ****END OF INPUT****

CARTESIAN COORDINATES (ANGSTROEM)
---------------------------------
  O     -0.378459   -0.080995   -0.470546
  C     -1.289637   -1.073640   -0.421201
  C     -3.023293   -0.011684   -0.158180
  C     -2.123088    1.066946   -0.250320
  C     -1.906041    1.761247   -1.552020
  Fe     1.421163    0.049869    0.053132
  Cl     1.979827    2.003206   -0.805905
  C     -1.601925    1.759221    0.963999
  Cl     2.384663   -1.747510   -0.779466
  Cl     1.417843    0.061436    2.266506
  H     -3.555582   -0.246706   -1.077742
  H     -2.396792    2.439713    1.306734
  H     -1.377964    1.075584    1.783565
  H     -0.711620    2.348487    0.739603
  H     -2.570979    2.639265   -1.547542
  H     -0.877248    2.112839   -1.653110
  H     -2.182643    1.143725   -2.408686
  C     -3.753607   -0.383528    1.109429
  H     -4.642043    0.249136    1.234949
  H     -4.100185   -1.420609    1.068715
  H     -3.139804   -0.269408    2.005414
  C     -1.211673   -1.974018    0.779983
  H     -2.056331   -2.663219    0.840194
  H     -0.292105   -2.564599    0.656471
  H     -1.105296   -1.410855    1.707922
  C     -1.521830   -1.756518   -1.743557
  H     -0.596619   -2.305304   -1.969742
  H     -2.355678   -2.462022   -1.704379
  H     -1.674774   -1.034048   -2.547518

ORBITAL ENERGIES
----------------
                 SPIN UP ORBITALS
  NO   OCC          E(Eh)            E(eV)
   0   1.0000    -261.554771     -7117.2672
   1   1.0000    -104.779224     -2851.1876
   2   1.0000    -104.778798     -2851.1761
   3   1.0000    -104.778328     -2851.1633
   4   1.0000     -32.222645      -876.8228
   5   1.0000     -27.698652      -753.7186
   6   1.0000     -27.698272      -753.7083
   7   1.0000     -27.698086      -753.7032
   8   1.0000     -20.560527      -559.4804
   9   1.0000     -11.393788      -310.0407
  10   1.0000     -11.364519      -309.2443
  11   1.0000     -11.271127      -306.7030
  12   1.0000     -11.265020      -306.5368
  13   1.0000     -11.262563      -306.4699
  14   1.0000     -11.258064      -306.3475
  15   1.0000     -11.257183      -306.3235
  16   1.0000     -11.253850      -306.2328
  17   1.0000     -10.505739      -285.8757
  18   1.0000     -10.505345      -285.8650
  19   1.0000     -10.504914      -285.8532
  20   1.0000      -7.972540      -216.9438
  21   1.0000      -7.972172      -216.9338
  22   1.0000      -7.971840      -216.9248
  23   1.0000      -7.971799      -216.9237
  24   1.0000      -7.971760      -216.9226
  25   1.0000      -7.971443      -216.9140
  26   1.0000      -7.971367      -216.9119
  27   1.0000      -7.970974      -216.9012
  28   1.0000      -7.970916      -216.8997
  29   1.0000      -4.578053      -124.5752
  30   1.0000      -3.190755       -86.8248
  31   1.0000      -3.190077       -86.8064
  32   1.0000      -3.189526       -86.7914
  33   1.0000      -1.401179       -38.1280
  34   1.0000      -1.165096       -31.7039
  35   1.0000      -1.089071       -29.6351
  36   1.0000      -1.051404       -28.6102
  37   1.0000      -1.045410       -28.4471
  38   1.0000      -1.044938       -28.4342
  39   1.0000      -1.037765       -28.2390
  40   1.0000      -0.999595       -27.2004
  41   1.0000      -0.985592       -26.8193
  42   1.0000      -0.930703       -25.3257
  43   1.0000      -0.914318       -24.8799
  44   1.0000      -0.907694       -24.6996
  45   1.0000      -0.907542       -24.6955
  46   1.0000      -0.898817       -24.4581
  47   1.0000      -0.898098       -24.4385
  48   1.0000      -0.787498       -21.4289
  49   1.0000      -0.759537       -20.6681
  50   1.0000      -0.696387       -18.9496
  51   1.0000      -0.691956       -18.8291
  52   1.0000      -0.677107       -18.4250
  53   1.0000      -0.656489       -17.8640
  54   1.0000      -0.640475       -17.4282
  55   1.0000      -0.621948       -16.9241
  56   1.0000      -0.599618       -16.3164
  57   1.0000      -0.591670       -16.1002
  58   1.0000      -0.585796       -15.9403
  59   1.0000      -0.582664       -15.8551
  60   1.0000      -0.572123       -15.5683
  61   1.0000      -0.566481       -15.4147
  62   1.0000      -0.553356       -15.0576
  63   1.0000      -0.548472       -14.9247
  64   1.0000      -0.540728       -14.7140
  65   1.0000      -0.528898       -14.3921
  66   1.0000      -0.511627       -13.9221
  67   1.0000      -0.484772       -13.1913
  68   1.0000      -0.466595       -12.6967
  69   1.0000      -0.455193       -12.3864
  70   1.0000      -0.434895       -11.8341
  71   1.0000      -0.429089       -11.6761
  72   1.0000      -0.426345       -11.6014
  73   1.0000      -0.420120       -11.4321
  74   1.0000      -0.417461       -11.3597
  75   1.0000      -0.416878       -11.3438
  76   1.0000      -0.372172       -10.1273
  77   0.0000       0.010413         0.2834
  78   0.0000       0.020915         0.5691
  79   0.0000       0.022960         0.6248
  80   0.0000       0.030613         0.8330
  81   0.0000       0.038180         1.0389

                 SPIN DOWN ORBITALS
  NO   OCC          E(Eh)            E(eV)
   0   1.0000    -261.551221     -7117.1706
   1   1.0000    -104.777859     -2851.1505
   2   1.0000    -104.777367     -2851.1371
   3   1.0000    -104.776925     -2851.1251
   4   1.0000     -32.060663      -872.4150
   5   1.0000     -27.538666      -749.3652
   6   1.0000     -27.538548      -749.3620
   7   1.0000     -27.538161      -749.3515
   8   1.0000     -20.555365      -559.3399
   9   1.0000     -11.393864      -310.0428
  10   1.0000     -11.364558      -309.2454
  11   1.0000     -11.270583      -306.6882
  12   1.0000     -11.265000      -306.5362
  13   1.0000     -11.262572      -306.4702
  14   1.0000     -11.258121      -306.3490
  15   1.0000     -11.257099      -306.3212
  16   1.0000     -11.253809      -306.2317
  17   1.0000     -10.504278      -285.8359
  18   1.0000     -10.503812      -285.8233
  19   1.0000     -10.503407      -285.8122
  20   1.0000      -7.970257      -216.8817
  21   1.0000      -7.969752      -216.8680
  22   1.0000      -7.969562      -216.8628
  23   1.0000      -7.969476      -216.8605
  24   1.0000      -7.969298      -216.8556
  25   1.0000      -7.969065      -216.8493
  26   1.0000      -7.968992      -216.8473
  27   1.0000      -7.968724      -216.8400
  28   1.0000      -7.968647      -216.8379
  29   1.0000      -4.135927      -112.5443
  30   1.0000      -2.657717       -72.3202
  31   1.0000      -2.657555       -72.3157
  32   1.0000      -2.657078       -72.3028
  33   1.0000      -1.388035       -37.7703
  34   1.0000      -1.163690       -31.6656
  35   1.0000      -1.086415       -29.5629
  36   1.0000      -1.037243       -28.2248
  37   1.0000      -1.036447       -28.2032
  38   1.0000      -1.025161       -27.8960
  39   1.0000      -1.024664       -27.8825
  40   1.0000      -0.999100       -27.1869
  41   1.0000      -0.985261       -26.8103
  42   1.0000      -0.924213       -25.1491
  43   1.0000      -0.798588       -21.7307
  44   1.0000      -0.760420       -20.6921
  45   1.0000      -0.696160       -18.9435
  46   1.0000      -0.692673       -18.8486
  47   1.0000      -0.678172       -18.4540
  48   1.0000      -0.656041       -17.8518
  49   1.0000      -0.640057       -17.4168
  50   1.0000      -0.622033       -16.9264
  51   1.0000      -0.598521       -16.2866
  52   1.0000      -0.591377       -16.0922
  53   1.0000      -0.585661       -15.9366
  54   1.0000      -0.582437       -15.8489
  55   1.0000      -0.571906       -15.5623
  56   1.0000      -0.566376       -15.4119
  57   1.0000      -0.552524       -15.0349
  58   1.0000      -0.548090       -14.9143
  59   1.0000      -0.535656       -14.5760
  60   1.0000      -0.528255       -14.3745
  61   1.0000      -0.506994       -13.7960
  62   1.0000      -0.480573       -13.0771
  63   1.0000      -0.470654       -12.8072
  64   1.0000      -0.466016       -12.6809
  65   1.0000      -0.440590       -11.9891
  66   1.0000      -0.438531       -11.9330
  67   1.0000      -0.436158       -11.8685
  68   1.0000      -0.424306       -11.5459
  69   1.0000      -0.415481       -11.3058
  70   1.0000      -0.403610       -10.9828
  71   1.0000      -0.371118       -10.0986
  72   0.0000       0.010414         0.2834
  73   0.0000       0.020838         0.5670
  74   0.0000       0.022940         0.6242
  75   0.0000       0.030655         0.8342
  76   0.0000       0.038155         1.0382

E(0)                                       ...  -3028.411427596
E(0)                                       ...  -3028.411427596
E(CORR)(strong-pairs)                      ...     -2.873693905
E(CORR)(weak-pairs)                        ...     -0.035904154
E(CORR)(corrected)                         ...     -2.909598058
E(TOT)                                     ...  -3031.321025654
E(CCSD(T))                                 ...  -3031.440991750
FINAL SINGLE POINT ENERGY     -3031.440991749947

DIPOLE MOMENT
-------------
                                X             Y             Z
Electronic contribution:     41.31193       2.80373       2.15188
Nuclear contribution   :    -45.62462      -2.90389      -2.65002
                        -----------------------------------------
Total Dipole Moment    :     -4.31269      -0.10016      -0.49814
                        -----------------------------------------
Magnitude (a.u.)       :      4.34252
Magnitude (Debye)      :     11.03780

Rotational constants in cm-1:     0.019406     0.011525     0.010648
Rotational constants in MHz :   581.775332   345.522685   319.233485

                             ****ORCA TERMINATED NORMALLY****
TOTAL RUN TIME: 0 days 21 hours 26 minutes 4 seconds 940 msec
