                         Program Version 4.1.2  - RELEASE  -
|  1> ! aug-cc-pVTZ aug-cc-pVTZ/C DLPNO-CCSD(T1) TightSCF NormalPNO UNO MiniPrint AutoAux
|  2> %pal nproc 10 end
|  3> %maxcore 20000
|  4> %mdci
|  5>      density none
|  6> end
|  7>
|  8> * xyz 0 6
|  9>  O     -0.29774100     -0.22932000     -0.58977600
| 10>  C     -1.12535700     -1.18511000     -0.39551700
| 11>  C     -2.74797700     -0.28989500      0.79010300
| 12>  C     -2.91806100      0.76260900     -0.06781200
| 13>  C     -3.87331700      0.70264900     -1.21958700
| 14> Fe      1.50931500      0.17977100     -0.07006200
| 15> Cl      1.87049300      2.11678900     -1.01672000
| 16>  C     -2.11494100      2.01185500      0.05617100
| 17> Cl      2.62624400     -1.52611900     -0.87772300
| 18> Cl      1.60633900      0.27407700      2.12664400
| 19>  H     -3.42478100     -1.13419600      0.66524600
| 20>  H     -2.60317100      2.86071900     -0.43046700
| 21>  H     -1.87961300      2.27057500      1.09084600
| 22>  H     -1.15421500      1.84563000     -0.45875600
| 23>  H     -4.66678100      1.44471400     -1.05609500
| 24>  H     -3.38298800      0.98331900     -2.16069800
| 25>  H     -4.34396300     -0.27631600     -1.33311900
| 26>  C     -2.13593900     -0.12091900      2.16386300
| 27>  H     -2.74341400      0.57362800      2.75704000
| 28>  H     -2.10793100     -1.06890700      2.70436100
| 29>  H     -1.11913200      0.27756900      2.13042300
| 30>  C     -0.76918300     -2.24517400      0.62237600
| 31>  H     -1.62046200     -2.87352200      0.89132600
| 32>  H     -0.01489900     -2.87470600      0.12954200
| 33>  H     -0.30635700     -1.82257700      1.51310700
| 34>  C     -1.85572800     -1.68162800     -1.62168900
| 35>  H     -1.15942300     -2.36067800     -2.13170700
| 36>  H     -2.75925600     -2.24406400     -1.37754000
| 37>  H     -2.08314300     -0.86768600     -2.30853700
| 38> *
| 39>
| 40>
| 41>                          ****END OF INPUT****

CARTESIAN COORDINATES (ANGSTROEM)
---------------------------------
  O     -0.297741   -0.229320   -0.589776
  C     -1.125357   -1.185110   -0.395517
  C     -2.747977   -0.289895    0.790103
  C     -2.918061    0.762609   -0.067812
  C     -3.873317    0.702649   -1.219587
  Fe     1.509315    0.179771   -0.070062
  Cl     1.870493    2.116789   -1.016720
  C     -2.114941    2.011855    0.056171
  Cl     2.626244   -1.526119   -0.877723
  Cl     1.606339    0.274077    2.126644
  H     -3.424781   -1.134196    0.665246
  H     -2.603171    2.860719   -0.430467
  H     -1.879613    2.270575    1.090846
  H     -1.154215    1.845630   -0.458756
  H     -4.666781    1.444714   -1.056095
  H     -3.382988    0.983319   -2.160698
  H     -4.343963   -0.276316   -1.333119
  C     -2.135939   -0.120919    2.163863
  H     -2.743414    0.573628    2.757040
  H     -2.107931   -1.068907    2.704361
  H     -1.119132    0.277569    2.130423
  C     -0.769183   -2.245174    0.622376
  H     -1.620462   -2.873522    0.891326
  H     -0.014899   -2.874706    0.129542
  H     -0.306357   -1.822577    1.513107
  C     -1.855728   -1.681628   -1.621689
  H     -1.159423   -2.360678   -2.131707
  H     -2.759256   -2.244064   -1.377540
  H     -2.083143   -0.867686   -2.308537

ORBITAL ENERGIES
----------------
                 SPIN UP ORBITALS
  NO   OCC          E(Eh)            E(eV)
   0   1.0000    -261.563524     -7117.5053
   1   1.0000    -104.784872     -2851.3413
   2   1.0000    -104.781947     -2851.2617
   3   1.0000    -104.780413     -2851.2200
   4   1.0000     -32.231335      -877.0592
   5   1.0000     -27.707637      -753.9631
   6   1.0000     -27.706779      -753.9398
   7   1.0000     -27.706617      -753.9354
   8   1.0000     -20.591539      -560.3243
   9   1.0000     -11.410029      -310.4827
  10   1.0000     -11.309105      -307.7364
  11   1.0000     -11.268496      -306.6314
  12   1.0000     -11.265679      -306.5547
  13   1.0000     -11.263998      -306.5090
  14   1.0000     -11.262160      -306.4589
  15   1.0000     -11.246510      -306.0331
  16   1.0000     -11.242262      -305.9175
  17   1.0000     -10.511532      -286.0333
  18   1.0000     -10.508596      -285.9534
  19   1.0000     -10.507020      -285.9105
  20   1.0000      -7.978378      -217.1027
  21   1.0000      -7.977581      -217.0810
  22   1.0000      -7.977572      -217.0808
  23   1.0000      -7.975459      -217.0233
  24   1.0000      -7.974697      -217.0025
  25   1.0000      -7.974623      -217.0005
  26   1.0000      -7.973833      -216.9790
  27   1.0000      -7.973147      -216.9604
  28   1.0000      -7.973066      -216.9581
  29   1.0000      -4.586495      -124.8049
  30   1.0000      -3.199545       -87.0641
  31   1.0000      -3.198093       -87.0245
  32   1.0000      -3.197862       -87.0183
  33   1.0000      -1.435154       -39.0525
  34   1.0000      -1.153275       -31.3822
  35   1.0000      -1.089949       -29.6590
  36   1.0000      -1.056968       -28.7616
  37   1.0000      -1.051535       -28.6137
  38   1.0000      -1.048743       -28.5378
  39   1.0000      -1.033000       -28.1094
  40   1.0000      -0.998155       -27.1612
  41   1.0000      -0.980789       -26.6886
  42   1.0000      -0.932629       -25.3781
  43   1.0000      -0.915694       -24.9173
  44   1.0000      -0.915647       -24.9160
  45   1.0000      -0.911318       -24.7982
  46   1.0000      -0.905459       -24.6388
  47   1.0000      -0.905022       -24.6269
  48   1.0000      -0.800984       -21.7959
  49   1.0000      -0.750920       -20.4336
  50   1.0000      -0.695686       -18.9306
  51   1.0000      -0.686276       -18.6745
  52   1.0000      -0.682724       -18.5779
  53   1.0000      -0.671800       -18.2806
  54   1.0000      -0.640029       -17.4161
  55   1.0000      -0.623099       -16.9554
  56   1.0000      -0.604355       -16.4453
  57   1.0000      -0.596221       -16.2240
  58   1.0000      -0.582505       -15.8508
  59   1.0000      -0.573320       -15.6008
  60   1.0000      -0.572916       -15.5898
  61   1.0000      -0.561207       -15.2712
  62   1.0000      -0.556625       -15.1465
  63   1.0000      -0.540173       -14.6989
  64   1.0000      -0.538452       -14.6520
  65   1.0000      -0.524160       -14.2631
  66   1.0000      -0.513887       -13.9836
  67   1.0000      -0.489635       -13.3237
  68   1.0000      -0.469930       -12.7874
  69   1.0000      -0.464187       -12.6312
  70   1.0000      -0.437548       -11.9063
  71   1.0000      -0.432817       -11.7776
  72   1.0000      -0.430335       -11.7100
  73   1.0000      -0.422082       -11.4854
  74   1.0000      -0.420664       -11.4469
  75   1.0000      -0.419609       -11.4181
  76   1.0000      -0.374065       -10.1788
  77   0.0000       0.010673         0.2904
  78   0.0000       0.021288         0.5793
  79   0.0000       0.022639         0.6160
  80   0.0000       0.028666         0.7801
  81   0.0000       0.037026         1.0075

                 SPIN DOWN ORBITALS
  NO   OCC          E(Eh)            E(eV)
   0   1.0000    -261.559957     -7117.4083
   1   1.0000    -104.783411     -2851.3016
   2   1.0000    -104.780446     -2851.2209
   3   1.0000    -104.778917     -2851.1793
   4   1.0000     -32.069291      -872.6498
   5   1.0000     -27.547229      -749.5982
   6   1.0000     -27.547170      -749.5966
   7   1.0000     -27.546934      -749.5902
   8   1.0000     -20.587545      -560.2156
   9   1.0000     -11.409904      -310.4793
  10   1.0000     -11.308673      -307.7246
  11   1.0000     -11.268391      -306.6285
  12   1.0000     -11.265736      -306.5563
  13   1.0000     -11.263994      -306.5089
  14   1.0000     -11.262383      -306.4650
  15   1.0000     -11.246571      -306.0348
  16   1.0000     -11.242245      -305.9170
  17   1.0000     -10.509968      -285.9908
  18   1.0000     -10.506991      -285.9097
  19   1.0000     -10.505426      -285.8672
  20   1.0000      -7.975865      -217.0343
  21   1.0000      -7.975201      -217.0162
  22   1.0000      -7.975141      -217.0146
  23   1.0000      -7.972896      -216.9535
  24   1.0000      -7.972219      -216.9351
  25   1.0000      -7.972126      -216.9326
  26   1.0000      -7.971397      -216.9127
  27   1.0000      -7.970609      -216.8913
  28   1.0000      -7.970513      -216.8887
  29   1.0000      -4.144241      -112.7705
  30   1.0000      -2.665875       -72.5421
  31   1.0000      -2.665831       -72.5410
  32   1.0000      -2.665297       -72.5264
  33   1.0000      -1.425004       -38.7763
  34   1.0000      -1.152387       -31.3581
  35   1.0000      -1.087288       -29.5866
  36   1.0000      -1.041968       -28.3534
  37   1.0000      -1.033266       -28.1166
  38   1.0000      -1.029122       -28.0038
  39   1.0000      -1.026952       -27.9448
  40   1.0000      -0.997552       -27.1448
  41   1.0000      -0.980681       -26.6857
  42   1.0000      -0.911758       -24.8102
  43   1.0000      -0.815659       -22.1952
  44   1.0000      -0.750996       -20.4357
  45   1.0000      -0.698720       -19.0131
  46   1.0000      -0.685380       -18.6501
  47   1.0000      -0.681972       -18.5574
  48   1.0000      -0.671595       -18.2750
  49   1.0000      -0.639974       -17.4146
  50   1.0000      -0.622404       -16.9365
  51   1.0000      -0.603900       -16.4330
  52   1.0000      -0.596047       -16.2193
  53   1.0000      -0.582312       -15.8455
  54   1.0000      -0.572902       -15.5895
  55   1.0000      -0.572162       -15.5693
  56   1.0000      -0.561256       -15.2726
  57   1.0000      -0.556513       -15.1435
  58   1.0000      -0.538947       -14.6655
  59   1.0000      -0.536670       -14.6035
  60   1.0000      -0.514255       -13.9936
  61   1.0000      -0.513398       -13.9703
  62   1.0000      -0.489017       -13.3068
  63   1.0000      -0.475363       -12.9353
  64   1.0000      -0.473404       -12.8820
  65   1.0000      -0.445852       -12.1322
  66   1.0000      -0.442187       -12.0325
  67   1.0000      -0.440029       -11.9738
  68   1.0000      -0.425485       -11.5780
  69   1.0000      -0.420198       -11.4342
  70   1.0000      -0.405405       -11.0316
  71   1.0000      -0.372491       -10.1360
  72   0.0000       0.010666         0.2902
  73   0.0000       0.021274         0.5789
  74   0.0000       0.022629         0.6158
  75   0.0000       0.028477         0.7749
  76   0.0000       0.036257         0.9866

E(0)                                       ...  -3028.440523811
E(0)                                       ...  -3028.440523811
E(CORR)(strong-pairs)                      ...     -2.872988189
E(CORR)(weak-pairs)                        ...     -0.035708502
E(CORR)(corrected)                         ...     -2.908696692
E(TOT)                                     ...  -3031.349220503
E(CCSD(T))                                 ...  -3031.469004112
FINAL SINGLE POINT ENERGY     -3031.469004111907

DIPOLE MOMENT
-------------
                                X             Y             Z
Electronic contribution:     43.80954       5.89844      -0.79493
Nuclear contribution   :    -48.06113      -6.93267       0.53141
                        -----------------------------------------
Total Dipole Moment    :     -4.25159      -1.03423      -0.26352
                        -----------------------------------------
Magnitude (a.u.)       :      4.38350
Magnitude (Debye)      :     11.14198

Rotational constants in cm-1:     0.019397     0.010372     0.009880
Rotational constants in MHz :   581.505055   310.931407   296.188459

                             ****ORCA TERMINATED NORMALLY****
TOTAL RUN TIME: 0 days 18 hours 17 minutes 18 seconds 481 msec
