                         Program Version 4.1.2  - RELEASE  -
|  1> ! aug-cc-pVTZ aug-cc-pVTZ/C DLPNO-CCSD(T1) TightSCF NormalPNO UNO MiniPrint AutoAux
|  2> %pal nproc 10 end
|  3> %maxcore 20000
|  4> %mdci
|  5>      density none
|  6> end
|  7>
|  8> * xyz 0 6
|  9>  O     -0.27367000     -0.32807100     -0.61667700
| 10>  C     -1.33881100     -1.12455900     -0.28577300
| 11>  C     -2.30462300     -0.36243400      0.73715200
| 12>  C     -2.90636700      0.72943600     -0.01617600
| 13>  C     -4.28943900      0.62452300     -0.53252600
| 14> Fe      1.46581200      0.12203100     -0.09810200
| 15> Cl      2.75696100     -0.25323100     -1.83228500
| 16>  C     -2.08062200      1.85691800     -0.38645600
| 17> Cl      2.08666400     -1.00871900      1.69530000
| 18> Cl      1.29205900      2.28793500      0.41743900
| 19>  H     -3.07856200     -1.08927500      1.00399600
| 20>  H     -2.56184300      2.60095700     -1.02096300
| 21>  H     -1.54130600      2.31593400      0.44999600
| 22>  H     -1.21785200      1.34624800     -0.90375600
| 23>  H     -4.91687000      1.24270700      0.13255300
| 24>  H     -4.38748900      1.05871800     -1.53316900
| 25>  H     -4.68186600     -0.39352700     -0.50761100
| 26>  C     -1.54472100      0.09391800      1.99835700
| 27>  H     -2.20663600      0.67789900      2.64533300
| 28>  H     -1.20047000     -0.77230400      2.56387100
| 29>  H     -0.67503400      0.70219900      1.75071000
| 30>  C     -0.89767500     -2.42163200      0.42672900
| 31>  H     -1.76403300     -3.02853600      0.70847800
| 32>  H     -0.28527700     -2.99049300     -0.27892100
| 33>  H     -0.28515000     -2.22058500      1.30421600
| 34>  C     -2.08386600     -1.50166100     -1.58252700
| 35>  H     -1.41678100     -2.11580400     -2.19247400
| 36>  H     -2.99672700     -2.07434000     -1.38321400
| 37>  H     -2.33572600     -0.61684200     -2.17535800
| 38> *
| 39>
| 40>
| 41>                          ****END OF INPUT****

CARTESIAN COORDINATES (ANGSTROEM)
---------------------------------
  O     -0.273670   -0.328071   -0.616677
  C     -1.338811   -1.124559   -0.285773
  C     -2.304623   -0.362434    0.737152
  C     -2.906367    0.729436   -0.016176
  C     -4.289439    0.624523   -0.532526
  Fe     1.465812    0.122031   -0.098102
  Cl     2.756961   -0.253231   -1.832285
  C     -2.080622    1.856918   -0.386456
  Cl     2.086664   -1.008719    1.695300
  Cl     1.292059    2.287935    0.417439
  H     -3.078562   -1.089275    1.003996
  H     -2.561843    2.600957   -1.020963
  H     -1.541306    2.315934    0.449996
  H     -1.217852    1.346248   -0.903756
  H     -4.916870    1.242707    0.132553
  H     -4.387489    1.058718   -1.533169
  H     -4.681866   -0.393527   -0.507611
  C     -1.544721    0.093918    1.998357
  H     -2.206636    0.677899    2.645333
  H     -1.200470   -0.772304    2.563871
  H     -0.675034    0.702199    1.750710
  C     -0.897675   -2.421632    0.426729
  H     -1.764033   -3.028536    0.708478
  H     -0.285277   -2.990493   -0.278921
  H     -0.285150   -2.220585    1.304216
  C     -2.083866   -1.501661   -1.582527
  H     -1.416781   -2.115804   -2.192474
  H     -2.996727   -2.074340   -1.383214
  H     -2.335726   -0.616842   -2.175358

ORBITAL ENERGIES
----------------
                 SPIN UP ORBITALS
  NO   OCC          E(Eh)            E(eV)
   0   1.0000    -261.537794     -7116.8052
   1   1.0000    -104.767893     -2850.8793
   2   1.0000    -104.765219     -2850.8065
   3   1.0000    -104.758433     -2850.6219
   4   1.0000     -32.205583      -876.3585
   5   1.0000     -27.681457      -753.2507
   6   1.0000     -27.681369      -753.2484
   7   1.0000     -27.681061      -753.2400
   8   1.0000     -20.532029      -558.7049
   9   1.0000     -11.412313      -310.5448
  10   1.0000     -11.335676      -308.4594
  11   1.0000     -11.315346      -307.9062
  12   1.0000     -11.293762      -307.3189
  13   1.0000     -11.280648      -306.9620
  14   1.0000     -11.256344      -306.3007
  15   1.0000     -11.246496      -306.0327
  16   1.0000     -11.230655      -305.6017
  17   1.0000     -10.494522      -285.5705
  18   1.0000     -10.491952      -285.5005
  19   1.0000     -10.485019      -285.3119
  20   1.0000      -7.961429      -216.6415
  21   1.0000      -7.960566      -216.6180
  22   1.0000      -7.960483      -216.6158
  23   1.0000      -7.958794      -216.5698
  24   1.0000      -7.958003      -216.5483
  25   1.0000      -7.957998      -216.5481
  26   1.0000      -7.951860      -216.3811
  27   1.0000      -7.951152      -216.3618
  28   1.0000      -7.951023      -216.3583
  29   1.0000      -4.560911      -124.1087
  30   1.0000      -3.173388       -86.3523
  31   1.0000      -3.172958       -86.3406
  32   1.0000      -3.172701       -86.3336
  33   1.0000      -1.356952       -36.9245
  34   1.0000      -1.210581       -32.9416
  35   1.0000      -1.094972       -29.7957
  36   1.0000      -1.049093       -28.5473
  37   1.0000      -1.037352       -28.2278
  38   1.0000      -1.033070       -28.1113
  39   1.0000      -1.028016       -27.9737
  40   1.0000      -1.026422       -27.9304
  41   1.0000      -0.964503       -26.2455
  42   1.0000      -0.933222       -25.3943
  43   1.0000      -0.902432       -24.5564
  44   1.0000      -0.890807       -24.2401
  45   1.0000      -0.889741       -24.2111
  46   1.0000      -0.882590       -24.0165
  47   1.0000      -0.881412       -23.9845
  48   1.0000      -0.814511       -22.1640
  49   1.0000      -0.768809       -20.9204
  50   1.0000      -0.720397       -19.6030
  51   1.0000      -0.699005       -19.0209
  52   1.0000      -0.680770       -18.5247
  53   1.0000      -0.652952       -17.7677
  54   1.0000      -0.644700       -17.5432
  55   1.0000      -0.638063       -17.3626
  56   1.0000      -0.618079       -16.8188
  57   1.0000      -0.598249       -16.2792
  58   1.0000      -0.593636       -16.1537
  59   1.0000      -0.578775       -15.7493
  60   1.0000      -0.574933       -15.6447
  61   1.0000      -0.562845       -15.3158
  62   1.0000      -0.550343       -14.9756
  63   1.0000      -0.539107       -14.6698
  64   1.0000      -0.528225       -14.3737
  65   1.0000      -0.520850       -14.1730
  66   1.0000      -0.498691       -13.5701
  67   1.0000      -0.462117       -12.5748
  68   1.0000      -0.457525       -12.4499
  69   1.0000      -0.439171       -11.9505
  70   1.0000      -0.428050       -11.6478
  71   1.0000      -0.418344       -11.3837
  72   1.0000      -0.411811       -11.2059
  73   1.0000      -0.409402       -11.1404
  74   1.0000      -0.404415       -11.0047
  75   1.0000      -0.402083       -10.9412
  76   1.0000      -0.399388       -10.8679
  77   0.0000      -0.009584        -0.2608
  78   0.0000      -0.001058        -0.0288
  79   0.0000       0.016054         0.4368
  80   0.0000       0.016841         0.4583
  81   0.0000       0.026186         0.7126

                 SPIN DOWN ORBITALS
  NO   OCC          E(Eh)            E(eV)
   0   1.0000    -261.534268     -7116.7092
   1   1.0000    -104.766602     -2850.8442
   2   1.0000    -104.763819     -2850.7685
   3   1.0000    -104.756994     -2850.5827
   4   1.0000     -32.043507      -871.9481
   5   1.0000     -27.521661      -748.9025
   6   1.0000     -27.521475      -748.8974
   7   1.0000     -27.520870      -748.8809
   8   1.0000     -20.526113      -558.5439
   9   1.0000     -11.412336      -310.5455
  10   1.0000     -11.335478      -308.4540
  11   1.0000     -11.315344      -307.9062
  12   1.0000     -11.293672      -307.3164
  13   1.0000     -11.280643      -306.9619
  14   1.0000     -11.256379      -306.3017
  15   1.0000     -11.246389      -306.0298
  16   1.0000     -11.230600      -305.6002
  17   1.0000     -10.493128      -285.5325
  18   1.0000     -10.490448      -285.4596
  19   1.0000     -10.483480      -285.2700
  20   1.0000      -7.958979      -216.5748
  21   1.0000      -7.958579      -216.5639
  22   1.0000      -7.958492      -216.5616
  23   1.0000      -7.956373      -216.5039
  24   1.0000      -7.955725      -216.4863
  25   1.0000      -7.955697      -216.4855
  26   1.0000      -7.949434      -216.3151
  27   1.0000      -7.948740      -216.2962
  28   1.0000      -7.948642      -216.2935
  29   1.0000      -4.118607      -112.0730
  30   1.0000      -2.640790       -71.8596
  31   1.0000      -2.640375       -71.8483
  32   1.0000      -2.639209       -71.8165
  33   1.0000      -1.342076       -36.5197
  34   1.0000      -1.209495       -32.9120
  35   1.0000      -1.092346       -29.7243
  36   1.0000      -1.048225       -28.5237
  37   1.0000      -1.026948       -27.9447
  38   1.0000      -1.023468       -27.8500
  39   1.0000      -1.013167       -27.5697
  40   1.0000      -1.005861       -27.3709
  41   1.0000      -0.963867       -26.2282
  42   1.0000      -0.933027       -25.3890
  43   1.0000      -0.818526       -22.2732
  44   1.0000      -0.775981       -21.1155
  45   1.0000      -0.721066       -19.6212
  46   1.0000      -0.699126       -19.0242
  47   1.0000      -0.680834       -18.5264
  48   1.0000      -0.653350       -17.7785
  49   1.0000      -0.646209       -17.5842
  50   1.0000      -0.636480       -17.3195
  51   1.0000      -0.618090       -16.8191
  52   1.0000      -0.598172       -16.2771
  53   1.0000      -0.593435       -16.1482
  54   1.0000      -0.577984       -15.7277
  55   1.0000      -0.573410       -15.6033
  56   1.0000      -0.562133       -15.2964
  57   1.0000      -0.550417       -14.9776
  58   1.0000      -0.539332       -14.6760
  59   1.0000      -0.525255       -14.2929
  60   1.0000      -0.516750       -14.0615
  61   1.0000      -0.492672       -13.4063
  62   1.0000      -0.460311       -12.5257
  63   1.0000      -0.456408       -12.4195
  64   1.0000      -0.444410       -12.0930
  65   1.0000      -0.434675       -11.8281
  66   1.0000      -0.428066       -11.6483
  67   1.0000      -0.423820       -11.5327
  68   1.0000      -0.422642       -11.5007
  69   1.0000      -0.401707       -10.9310
  70   1.0000      -0.393937       -10.7196
  71   1.0000      -0.388478       -10.5710
  72   0.0000      -0.009808        -0.2669
  73   0.0000      -0.001061        -0.0289
  74   0.0000       0.016046         0.4366
  75   0.0000       0.016820         0.4577
  76   0.0000       0.026203         0.7130

E(0)                                       ...  -3028.421672878
E(0)                                       ...  -3028.421672878
E(CORR)(strong-pairs)                      ...     -2.874348177
E(CORR)(weak-pairs)                        ...     -0.035106379
E(CORR)(corrected)                         ...     -2.909454556
E(TOT)                                     ...  -3031.331127434
E(CCSD(T))                                 ...  -3031.449741250
FINAL SINGLE POINT ENERGY     -3031.449741249725

DIPOLE MOMENT
-------------
                                X             Y             Z
Electronic contribution:     41.86729       7.07670      -0.45152
Nuclear contribution   :    -48.12080      -7.03082       0.50881
                        -----------------------------------------
Total Dipole Moment    :     -6.25350       0.04587       0.05728
                        -----------------------------------------
Magnitude (a.u.)       :      6.25393
Magnitude (Debye)      :     15.89623

Rotational constants in cm-1:     0.020859     0.010395     0.009893
Rotational constants in MHz :   625.325118   311.648496   296.570784

                             ****ORCA TERMINATED NORMALLY****
TOTAL RUN TIME: 0 days 20 hours 21 minutes 55 seconds 629 msec
