                         Program Version 4.1.2  - RELEASE  -
|  1> ! aug-cc-pVTZ aug-cc-pVTZ/C DLPNO-CCSD(T1) TightSCF NormalPNO UNO MiniPrint AutoAux
|  2> %pal nproc 10 end
|  3> %maxcore 20000
|  4> %mdci
|  5>      density none
|  6> end
|  7>
|  8> * xyz 0 6
|  9>  O     -0.25618300     -0.35907200     -0.61814200
| 10>  C     -1.31990300     -1.13618200     -0.28183900
| 11>  C     -2.30732400     -0.33186600      0.76724700
| 12>  C     -2.93741200      0.71126100     -0.01159500
| 13>  C     -4.31370000      0.55574400     -0.53463500
| 14> Fe      1.47537400      0.12352900     -0.09993100
| 15> Cl      2.78587300     -0.33010100     -1.79975200
| 16>  C     -2.14243800      1.86180100     -0.41273100
| 17> Cl      2.07043400     -0.93883300      1.74413100
| 18> Cl      1.29026100      2.30744800      0.31436200
| 19>  H     -3.05138000     -1.07531600      1.06773300
| 20>  H     -2.65362900      2.56557800     -1.07011100
| 21>  H     -1.65982100      2.37470500      0.42689900
| 22>  H     -1.25357000      1.39827900     -0.91280000
| 23>  H     -4.95200500      1.24601900      0.04216500
| 24>  H     -4.38778600      0.88095500     -1.57870100
| 25>  H     -4.71018400     -0.45361000     -0.41435800
| 26>  C     -1.50604900      0.16600500      1.98271200
| 27>  H     -2.15942300      0.73624100      2.65059000
| 28>  H     -1.10407000     -0.67702700      2.54455900
| 29>  H     -0.67120300      0.80143500      1.68832500
| 30>  C     -0.90463100     -2.41848500      0.46927600
| 31>  H     -1.77886300     -3.00862700      0.76074200
| 32>  H     -0.29574300     -3.01121900     -0.22027000
| 33>  H     -0.29221600     -2.20316100      1.34350600
| 34>  C     -2.08184100     -1.52287800     -1.56244000
| 35>  H     -1.43247000     -2.16632900     -2.16188100
| 36>  H     -3.00604000     -2.06996300     -1.34594000
| 37>  H     -2.31373900     -0.64424000     -2.17166200
| 38> *
| 39>
| 40>
| 41>                          ****END OF INPUT****

CARTESIAN COORDINATES (ANGSTROEM)
---------------------------------
  O     -0.256183   -0.359072   -0.618142
  C     -1.319903   -1.136182   -0.281839
  C     -2.307324   -0.331866    0.767247
  C     -2.937412    0.711261   -0.011595
  C     -4.313700    0.555744   -0.534635
  Fe     1.475374    0.123529   -0.099931
  Cl     2.785873   -0.330101   -1.799752
  C     -2.142438    1.861801   -0.412731
  Cl     2.070434   -0.938833    1.744131
  Cl     1.290261    2.307448    0.314362
  H     -3.051380   -1.075316    1.067733
  H     -2.653629    2.565578   -1.070111
  H     -1.659821    2.374705    0.426899
  H     -1.253570    1.398279   -0.912800
  H     -4.952005    1.246019    0.042165
  H     -4.387786    0.880955   -1.578701
  H     -4.710184   -0.453610   -0.414358
  C     -1.506049    0.166005    1.982712
  H     -2.159423    0.736241    2.650590
  H     -1.104070   -0.677027    2.544559
  H     -0.671203    0.801435    1.688325
  C     -0.904631   -2.418485    0.469276
  H     -1.778863   -3.008627    0.760742
  H     -0.295743   -3.011219   -0.220270
  H     -0.292216   -2.203161    1.343506
  C     -2.081841   -1.522878   -1.562440
  H     -1.432470   -2.166329   -2.161881
  H     -3.006040   -2.069963   -1.345940
  H     -2.313739   -0.644240   -2.171662

ORBITAL ENERGIES
----------------
                 SPIN UP ORBITALS
  NO   OCC          E(Eh)            E(eV)
   0   1.0000    -261.538087     -7116.8132
   1   1.0000    -104.767848     -2850.8781
   2   1.0000    -104.765373     -2850.8107
   3   1.0000    -104.758387     -2850.6206
   4   1.0000     -32.205878      -876.3665
   5   1.0000     -27.681741      -753.2585
   6   1.0000     -27.681678      -753.2568
   7   1.0000     -27.681358      -753.2480
   8   1.0000     -20.533413      -558.7426
   9   1.0000     -11.410137      -310.4856
  10   1.0000     -11.342211      -308.6372
  11   1.0000     -11.314302      -307.8778
  12   1.0000     -11.293043      -307.2993
  13   1.0000     -11.282067      -307.0007
  14   1.0000     -11.254896      -306.2613
  15   1.0000     -11.247261      -306.0535
  16   1.0000     -11.232216      -305.6441
  17   1.0000     -10.494474      -285.5692
  18   1.0000     -10.492104      -285.5047
  19   1.0000     -10.484983      -285.3109
  20   1.0000      -7.961377      -216.6401
  21   1.0000      -7.960523      -216.6168
  22   1.0000      -7.960435      -216.6145
  23   1.0000      -7.958953      -216.5741
  24   1.0000      -7.958156      -216.5524
  25   1.0000      -7.958146      -216.5522
  26   1.0000      -7.951825      -216.3802
  27   1.0000      -7.951115      -216.3608
  28   1.0000      -7.950989      -216.3574
  29   1.0000      -4.561211      -124.1169
  30   1.0000      -3.173698       -86.3607
  31   1.0000      -3.173257       -86.3487
  32   1.0000      -3.173000       -86.3417
  33   1.0000      -1.359949       -37.0061
  34   1.0000      -1.208750       -32.8918
  35   1.0000      -1.090929       -29.6857
  36   1.0000      -1.048770       -28.5385
  37   1.0000      -1.037429       -28.2299
  38   1.0000      -1.033206       -28.1150
  39   1.0000      -1.027617       -27.9629
  40   1.0000      -1.026465       -27.9315
  41   1.0000      -0.965625       -26.2760
  42   1.0000      -0.933040       -25.3893
  43   1.0000      -0.903424       -24.5834
  44   1.0000      -0.891067       -24.2472
  45   1.0000      -0.890064       -24.2199
  46   1.0000      -0.882820       -24.0228
  47   1.0000      -0.881580       -23.9890
  48   1.0000      -0.810326       -22.0501
  49   1.0000      -0.768272       -20.9057
  50   1.0000      -0.718327       -19.5467
  51   1.0000      -0.698437       -19.0054
  52   1.0000      -0.679743       -18.4968
  53   1.0000      -0.652553       -17.7569
  54   1.0000      -0.645059       -17.5530
  55   1.0000      -0.637590       -17.3497
  56   1.0000      -0.615924       -16.7601
  57   1.0000      -0.599270       -16.3070
  58   1.0000      -0.594892       -16.1878
  59   1.0000      -0.580925       -15.8078
  60   1.0000      -0.575661       -15.6645
  61   1.0000      -0.563040       -15.3211
  62   1.0000      -0.551295       -15.0015
  63   1.0000      -0.539879       -14.6909
  64   1.0000      -0.529549       -14.4098
  65   1.0000      -0.521387       -14.1877
  66   1.0000      -0.499029       -13.5793
  67   1.0000      -0.459717       -12.5095
  68   1.0000      -0.458572       -12.4784
  69   1.0000      -0.439275       -11.9533
  70   1.0000      -0.425325       -11.5737
  71   1.0000      -0.418229       -11.3806
  72   1.0000      -0.412368       -11.2211
  73   1.0000      -0.408693       -11.1211
  74   1.0000      -0.404719       -11.0130
  75   1.0000      -0.402031       -10.9398
  76   1.0000      -0.399327       -10.8662
  77   0.0000      -0.010237        -0.2786
  78   0.0000      -0.000913        -0.0248
  79   0.0000       0.016108         0.4383
  80   0.0000       0.016784         0.4567
  81   0.0000       0.026227         0.7137

                 SPIN DOWN ORBITALS
  NO   OCC          E(Eh)            E(eV)
   0   1.0000    -261.534561     -7116.7172
   1   1.0000    -104.766556     -2850.8429
   2   1.0000    -104.763975     -2850.7727
   3   1.0000    -104.756943     -2850.5813
   4   1.0000     -32.043785      -871.9557
   5   1.0000     -27.521923      -748.9096
   6   1.0000     -27.521761      -748.9052
   7   1.0000     -27.521161      -748.8889
   8   1.0000     -20.527563      -558.5834
   9   1.0000     -11.410151      -310.4860
  10   1.0000     -11.342028      -308.6323
  11   1.0000     -11.314302      -307.8778
  12   1.0000     -11.292942      -307.2966
  13   1.0000     -11.282066      -307.0006
  14   1.0000     -11.254933      -306.2623
  15   1.0000     -11.247150      -306.0505
  16   1.0000     -11.232161      -305.6426
  17   1.0000     -10.493079      -285.5312
  18   1.0000     -10.490602      -285.4638
  19   1.0000     -10.483438      -285.2689
  20   1.0000      -7.958941      -216.5738
  21   1.0000      -7.958523      -216.5624
  22   1.0000      -7.958434      -216.5600
  23   1.0000      -7.956524      -216.5080
  24   1.0000      -7.955886      -216.4907
  25   1.0000      -7.955855      -216.4898
  26   1.0000      -7.949391      -216.3139
  27   1.0000      -7.948696      -216.2950
  28   1.0000      -7.948599      -216.2924
  29   1.0000      -4.118864      -112.0800
  30   1.0000      -2.640999       -71.8652
  31   1.0000      -2.640632       -71.8552
  32   1.0000      -2.639495       -71.8243
  33   1.0000      -1.345114       -36.6024
  34   1.0000      -1.207850       -32.8673
  35   1.0000      -1.088362       -29.6158
  36   1.0000      -1.047726       -28.5101
  37   1.0000      -1.026774       -27.9400
  38   1.0000      -1.023463       -27.8498
  39   1.0000      -1.013257       -27.5721
  40   1.0000      -1.005847       -27.3705
  41   1.0000      -0.964991       -26.2587
  42   1.0000      -0.932856       -25.3843
  43   1.0000      -0.814594       -22.1662
  44   1.0000      -0.775965       -21.1151
  45   1.0000      -0.718946       -19.5635
  46   1.0000      -0.698444       -19.0056
  47   1.0000      -0.679791       -18.4981
  48   1.0000      -0.653664       -17.7871
  49   1.0000      -0.646098       -17.5812
  50   1.0000      -0.635819       -17.3015
  51   1.0000      -0.615902       -16.7596
  52   1.0000      -0.599139       -16.3034
  53   1.0000      -0.594670       -16.1818
  54   1.0000      -0.580216       -15.7885
  55   1.0000      -0.574382       -15.6297
  56   1.0000      -0.562403       -15.3038
  57   1.0000      -0.551322       -15.0022
  58   1.0000      -0.539947       -14.6927
  59   1.0000      -0.527272       -14.3478
  60   1.0000      -0.516336       -14.0502
  61   1.0000      -0.492748       -13.4084
  62   1.0000      -0.460215       -12.5231
  63   1.0000      -0.456059       -12.4100
  64   1.0000      -0.444580       -12.0976
  65   1.0000      -0.433033       -11.7834
  66   1.0000      -0.427840       -11.6421
  67   1.0000      -0.423632       -11.5276
  68   1.0000      -0.422484       -11.4964
  69   1.0000      -0.401708       -10.9310
  70   1.0000      -0.393208       -10.6997
  71   1.0000      -0.388450       -10.5703
  72   0.0000      -0.010499        -0.2857
  73   0.0000      -0.000914        -0.0249
  74   0.0000       0.016100         0.4381
  75   0.0000       0.016765         0.4562
  76   0.0000       0.026243         0.7141

E(0)                                       ...  -3028.423252640
E(0)                                       ...  -3028.423252640
E(CORR)(strong-pairs)                      ...     -2.874035355
E(CORR)(weak-pairs)                        ...     -0.034907439
E(CORR)(corrected)                         ...     -2.908942794
E(TOT)                                     ...  -3031.332195434
E(CCSD(T))                                 ...  -3031.451059678
FINAL SINGLE POINT ENERGY     -3031.451059678274

DIPOLE MOMENT
-------------
                                X             Y             Z
Electronic contribution:     42.08243       7.01373      -0.57411
Nuclear contribution   :    -48.33508      -7.00518       0.62746
                        -----------------------------------------
Total Dipole Moment    :     -6.25265       0.00855       0.05335
                        -----------------------------------------
Magnitude (a.u.)       :      6.25289
Magnitude (Debye)      :     15.89357

Rotational constants in cm-1:     0.020883     0.010330     0.009825
Rotational constants in MHz :   626.065276   309.687179   294.531933

                             ****ORCA TERMINATED NORMALLY****
TOTAL RUN TIME: 0 days 20 hours 47 minutes 27 seconds 633 msec
