                         Program Version 4.1.2  - RELEASE  -
|  1> ! aug-cc-pVTZ aug-cc-pVTZ/C DLPNO-CCSD(T1) TightSCF NormalPNO UNO MiniPrint AutoAux
|  2> %pal nproc 10 end
|  3> %maxcore 20000
|  4> %mdci
|  5>      density none
|  6> end
|  7>
|  8> * xyz 0 6
|  9>  O      0.18565400      0.35773700     -0.85770300
| 10>  C      1.02649100      1.27823800     -0.66260400
| 11>  C      2.92744400      0.25110300      0.59492400
| 12>  C      2.74371500     -0.89919600     -0.09679900
| 13>  C      3.39227800     -1.13048100     -1.43192200
| 14> Fe     -1.49530100     -0.17036900     -0.01246100
| 15> Cl     -2.02315200     -2.03557400     -1.00538900
| 16>  C      1.84724500     -2.00702200      0.36617000
| 17> Cl     -2.76628200      1.55538600     -0.45278400
| 18> Cl     -1.12316800     -0.40436800      2.14079600
| 19>  H      3.63243200      0.96971000      0.17794600
| 20>  H      2.38624800     -2.96282500      0.36315900
| 21>  H      1.42881100     -1.84638300      1.35943300
| 22>  H      1.01172000     -2.12249900     -0.33907300
| 23>  H      4.02081000     -2.02939600     -1.38657600
| 24>  H      2.63816100     -1.32288100     -2.20725000
| 25>  H      4.02323000     -0.29429200     -1.74432000
| 26>  C      2.58817700      0.45175300      2.05243100
| 27>  H      3.33639300     -0.05454700      2.67647500
| 28>  H      2.61290500      1.50910800      2.32757800
| 29>  H      1.60895300      0.05423600      2.32747800
| 30>  C      0.79628000      2.27936900      0.43089000
| 31>  H      1.67984100      2.88417800      0.63691400
| 32>  H      0.00026200      2.93992200      0.05598700
| 33>  H      0.42505300      1.81289300      1.34316000
| 34>  C      1.85179500      1.70420900     -1.84457600
| 35>  H      1.23094600      2.42551200     -2.39552400
| 36>  H      2.77490400      2.20786900     -1.55584500
| 37>  H      2.05561800      0.86671500     -2.50960800
| 38> *
| 39>
| 40>
| 41>                          ****END OF INPUT****

CARTESIAN COORDINATES (ANGSTROEM)
---------------------------------
  O      0.185654    0.357737   -0.857703
  C      1.026491    1.278238   -0.662604
  C      2.927444    0.251103    0.594924
  C      2.743715   -0.899196   -0.096799
  C      3.392278   -1.130481   -1.431922
  Fe    -1.495301   -0.170369   -0.012461
  Cl    -2.023152   -2.035574   -1.005389
  C      1.847245   -2.007022    0.366170
  Cl    -2.766282    1.555386   -0.452784
  Cl    -1.123168   -0.404368    2.140796
  H      3.632432    0.969710    0.177946
  H      2.386248   -2.962825    0.363159
  H      1.428811   -1.846383    1.359433
  H      1.011720   -2.122499   -0.339073
  H      4.020810   -2.029396   -1.386576
  H      2.638161   -1.322881   -2.207250
  H      4.023230   -0.294292   -1.744320
  C      2.588177    0.451753    2.052431
  H      3.336393   -0.054547    2.676475
  H      2.612905    1.509108    2.327578
  H      1.608953    0.054236    2.327478
  C      0.796280    2.279369    0.430890
  H      1.679841    2.884178    0.636914
  H      0.000262    2.939922    0.055987
  H      0.425053    1.812893    1.343160
  C      1.851795    1.704209   -1.844576
  H      1.230946    2.425512   -2.395524
  H      2.774904    2.207869   -1.555845
  H      2.055618    0.866715   -2.509608

ORBITAL ENERGIES
----------------
                 SPIN UP ORBITALS
  NO   OCC          E(Eh)            E(eV)
   0   1.0000    -261.572320     -7117.7447
   1   1.0000    -104.792056     -2851.5368
   2   1.0000    -104.788380     -2851.4368
   3   1.0000    -104.786064     -2851.3738
   4   1.0000     -32.240077      -877.2971
   5   1.0000     -27.716502      -754.2044
   6   1.0000     -27.715456      -754.1759
   7   1.0000     -27.715246      -754.1702
   8   1.0000     -20.614150      -560.9395
   9   1.0000     -11.420223      -310.7601
  10   1.0000     -11.277516      -306.8768
  11   1.0000     -11.275812      -306.8304
  12   1.0000     -11.271221      -306.7055
  13   1.0000     -11.249020      -306.1014
  14   1.0000     -11.248729      -306.0935
  15   1.0000     -11.236913      -305.7719
  16   1.0000     -11.234106      -305.6956
  17   1.0000     -10.518777      -286.2305
  18   1.0000     -10.515060      -286.1293
  19   1.0000     -10.512696      -286.0650
  20   1.0000      -7.985614      -217.2996
  21   1.0000      -7.984847      -217.2787
  22   1.0000      -7.984806      -217.2776
  23   1.0000      -7.981923      -217.1992
  24   1.0000      -7.981162      -217.1785
  25   1.0000      -7.981110      -217.1770
  26   1.0000      -7.979495      -217.1331
  27   1.0000      -7.978827      -217.1149
  28   1.0000      -7.978767      -217.1133
  29   1.0000      -4.595049      -125.0376
  30   1.0000      -3.208187       -87.2992
  31   1.0000      -3.206510       -87.2536
  32   1.0000      -3.206315       -87.2483
  33   1.0000      -1.456921       -39.6448
  34   1.0000      -1.132822       -30.8256
  35   1.0000      -1.097806       -29.8728
  36   1.0000      -1.064719       -28.9725
  37   1.0000      -1.058768       -28.8105
  38   1.0000      -1.055429       -28.7197
  39   1.0000      -1.023705       -27.8564
  40   1.0000      -1.007914       -27.4267
  41   1.0000      -0.963840       -26.2274
  42   1.0000      -0.940307       -25.5870
  43   1.0000      -0.924064       -25.1451
  44   1.0000      -0.923905       -25.1407
  45   1.0000      -0.913507       -24.8578
  46   1.0000      -0.912765       -24.8376
  47   1.0000      -0.899819       -24.4853
  48   1.0000      -0.810965       -22.0675
  49   1.0000      -0.735459       -20.0128
  50   1.0000      -0.707975       -19.2650
  51   1.0000      -0.698091       -18.9960
  52   1.0000      -0.682772       -18.5792
  53   1.0000      -0.659249       -17.9391
  54   1.0000      -0.625454       -17.0195
  55   1.0000      -0.621038       -16.8993
  56   1.0000      -0.605791       -16.4844
  57   1.0000      -0.598774       -16.2935
  58   1.0000      -0.584955       -15.9174
  59   1.0000      -0.576901       -15.6983
  60   1.0000      -0.561129       -15.2691
  61   1.0000      -0.556150       -15.1336
  62   1.0000      -0.545728       -14.8500
  63   1.0000      -0.544718       -14.8225
  64   1.0000      -0.535486       -14.5713
  65   1.0000      -0.528285       -14.3754
  66   1.0000      -0.501184       -13.6379
  67   1.0000      -0.497242       -13.5306
  68   1.0000      -0.475273       -12.9328
  69   1.0000      -0.473557       -12.8861
  70   1.0000      -0.444556       -12.0970
  71   1.0000      -0.438631       -11.9357
  72   1.0000      -0.436577       -11.8799
  73   1.0000      -0.428224       -11.6526
  74   1.0000      -0.426979       -11.6187
  75   1.0000      -0.425577       -11.5805
  76   1.0000      -0.363149        -9.8818
  77   0.0000       0.012296         0.3346
  78   0.0000       0.022972         0.6251
  79   0.0000       0.023855         0.6491
  80   0.0000       0.030266         0.8236
  81   0.0000       0.038960         1.0602

                 SPIN DOWN ORBITALS
  NO   OCC          E(Eh)            E(eV)
   0   1.0000    -261.568741     -7117.6473
   1   1.0000    -104.790580     -2851.4966
   2   1.0000    -104.786833     -2851.3947
   3   1.0000    -104.784515     -2851.3316
   4   1.0000     -32.078064      -872.8885
   5   1.0000     -27.555978      -749.8363
   6   1.0000     -27.555915      -749.8346
   7   1.0000     -27.555788      -749.8311
   8   1.0000     -20.610477      -560.8396
   9   1.0000     -11.420133      -310.7576
  10   1.0000     -11.277481      -306.8759
  11   1.0000     -11.275703      -306.8275
  12   1.0000     -11.271208      -306.7052
  13   1.0000     -11.249025      -306.1015
  14   1.0000     -11.248727      -306.0934
  15   1.0000     -11.236910      -305.7719
  16   1.0000     -11.234123      -305.6960
  17   1.0000     -10.517198      -286.1875
  18   1.0000     -10.513409      -286.0844
  19   1.0000     -10.511049      -286.0202
  20   1.0000      -7.983108      -217.2314
  21   1.0000      -7.982398      -217.2121
  22   1.0000      -7.982357      -217.2110
  23   1.0000      -7.979309      -217.1280
  24   1.0000      -7.978597      -217.1087
  25   1.0000      -7.978511      -217.1063
  26   1.0000      -7.977031      -217.0660
  27   1.0000      -7.976169      -217.0426
  28   1.0000      -7.976082      -217.0402
  29   1.0000      -4.152912      -113.0065
  30   1.0000      -2.674503       -72.7769
  31   1.0000      -2.674447       -72.7754
  32   1.0000      -2.673977       -72.7626
  33   1.0000      -1.447854       -39.3981
  34   1.0000      -1.132484       -30.8164
  35   1.0000      -1.095266       -29.8037
  36   1.0000      -1.049120       -28.5480
  37   1.0000      -1.036634       -28.2083
  38   1.0000      -1.032937       -28.1076
  39   1.0000      -1.023075       -27.8393
  40   1.0000      -1.007341       -27.4111
  41   1.0000      -0.963771       -26.2255
  42   1.0000      -0.899991       -24.4900
  43   1.0000      -0.824847       -22.4452
  44   1.0000      -0.735542       -20.0151
  45   1.0000      -0.710209       -19.3258
  46   1.0000      -0.697150       -18.9704
  47   1.0000      -0.682145       -18.5621
  48   1.0000      -0.659177       -17.9371
  49   1.0000      -0.625428       -17.0188
  50   1.0000      -0.620544       -16.8859
  51   1.0000      -0.605469       -16.4756
  52   1.0000      -0.598625       -16.2894
  53   1.0000      -0.584611       -15.9081
  54   1.0000      -0.575262       -15.6537
  55   1.0000      -0.560689       -15.2571
  56   1.0000      -0.555954       -15.1283
  57   1.0000      -0.544622       -14.8199
  58   1.0000      -0.544348       -14.8125
  59   1.0000      -0.529426       -14.4064
  60   1.0000      -0.522111       -14.2074
  61   1.0000      -0.502520       -13.6743
  62   1.0000      -0.497558       -13.5393
  63   1.0000      -0.483090       -13.1455
  64   1.0000      -0.480076       -13.0635
  65   1.0000      -0.452436       -12.3114
  66   1.0000      -0.448615       -12.2074
  67   1.0000      -0.445872       -12.1328
  68   1.0000      -0.429895       -11.6980
  69   1.0000      -0.426528       -11.6064
  70   1.0000      -0.411416       -11.1952
  71   1.0000      -0.362396        -9.8613
  72   0.0000       0.012279         0.3341
  73   0.0000       0.022947         0.6244
  74   0.0000       0.023818         0.6481
  75   0.0000       0.030149         0.8204
  76   0.0000       0.038787         1.0555

E(0)                                       ...  -3028.458768403
E(0)                                       ...  -3028.458768403
E(CORR)(strong-pairs)                      ...     -2.868282410
E(CORR)(weak-pairs)                        ...     -0.036029669
E(CORR)(corrected)                         ...     -2.904312079
E(TOT)                                     ...  -3031.363080481
E(CCSD(T))                                 ...  -3031.481432893
FINAL SINGLE POINT ENERGY     -3031.481432892960

DIPOLE MOMENT
-------------
                                X             Y             Z
Electronic contribution:    -43.71704      -5.36116       1.14852
Nuclear contribution   :     47.26031       6.70645      -1.74641
                        -----------------------------------------
Total Dipole Moment    :      3.54327       1.34528      -0.59789
                        -----------------------------------------
Magnitude (a.u.)       :      3.83693
Magnitude (Debye)      :      9.75269

Rotational constants in cm-1:     0.018996     0.010630     0.010001
Rotational constants in MHz :   569.473840   318.686501   299.817167

                             ****ORCA TERMINATED NORMALLY****
TOTAL RUN TIME: 0 days 17 hours 10 minutes 11 seconds 295 msec
