                         Program Version 4.1.2  - RELEASE  -
|  1> ! aug-cc-pVTZ aug-cc-pVTZ/C DLPNO-CCSD(T1) TightSCF NormalPNO UNO MiniPrint AutoAux
|  2> %pal nproc 10 end
|  3> %maxcore 20000
|  4> %mdci
|  5>      density none
|  6> end
|  7>
|  8> * xyz 0 6
|  9>  O     -0.31833500     -0.18396300     -0.68744200
| 10>  C     -1.22788300     -1.11575500     -0.53238200
| 11>  C     -2.68897500     -0.36202500      0.51623800
| 12>  C     -2.59333000      0.90271800     -0.05217100
| 13>  C     -3.30403800      1.24673600     -1.31807600
| 14> Fe      1.42428000      0.13702700     -0.03566500
| 15> Cl      1.90572100      2.11207500     -0.87779300
| 16>  C     -1.71719900      1.96079900      0.49825300
| 17> Cl      2.66174600     -1.53659400     -0.73247000
| 18> Cl      1.25950900      0.20974500      2.17571400
| 19>  H     -3.49054800     -0.98148700      0.11547100
| 20>  H     -2.20772400      2.93876000      0.44001900
| 21>  H     -1.37017800      1.77346200      1.51294200
| 22>  H     -0.82986000      2.02309400     -0.15241000
| 23>  H     -3.94455800      2.11950600     -1.13520500
| 24>  H     -2.58138800      1.55286600     -2.08632000
| 25>  H     -3.92588300      0.43489300     -1.69731500
| 26>  C     -2.42396700     -0.56491900      1.99990700
| 27>  H     -3.14606200      0.01928400      2.58190800
| 28>  H     -2.55541700     -1.61292400      2.27481900
| 29>  H     -1.41972200     -0.25894600      2.29860100
| 30>  C     -0.83393200     -2.29978600      0.33957200
| 31>  H     -1.66644300     -2.98553600      0.51372400
| 32>  H     -0.05494400     -2.83026300     -0.22251100
| 33>  H     -0.39709600     -1.98771900      1.28760000
| 34>  C     -1.87206100     -1.54303600     -1.84538000
| 35>  H     -1.11952100     -2.14264900     -2.37074300
| 36>  H     -2.76214200     -2.16069900     -1.70035700
| 37>  H     -2.10341100     -0.68986700     -2.48184200
| 38> *
| 39>
| 40>
| 41>                          ****END OF INPUT****

CARTESIAN COORDINATES (ANGSTROEM)
---------------------------------
  O     -0.318335   -0.183963   -0.687442
  C     -1.227883   -1.115755   -0.532382
  C     -2.688975   -0.362025    0.516238
  C     -2.593330    0.902718   -0.052171
  C     -3.304038    1.246736   -1.318076
  Fe     1.424280    0.137027   -0.035665
  Cl     1.905721    2.112075   -0.877793
  C     -1.717199    1.960799    0.498253
  Cl     2.661746   -1.536594   -0.732470
  Cl     1.259509    0.209745    2.175714
  H     -3.490548   -0.981487    0.115471
  H     -2.207724    2.938760    0.440019
  H     -1.370178    1.773462    1.512942
  H     -0.829860    2.023094   -0.152410
  H     -3.944558    2.119506   -1.135205
  H     -2.581388    1.552866   -2.086320
  H     -3.925883    0.434893   -1.697315
  C     -2.423967   -0.564919    1.999907
  H     -3.146062    0.019284    2.581908
  H     -2.555417   -1.612924    2.274819
  H     -1.419722   -0.258946    2.298601
  C     -0.833932   -2.299786    0.339572
  H     -1.666443   -2.985536    0.513724
  H     -0.054944   -2.830263   -0.222511
  H     -0.397096   -1.987719    1.287600
  C     -1.872061   -1.543036   -1.845380
  H     -1.119521   -2.142649   -2.370743
  H     -2.762142   -2.160699   -1.700357
  H     -2.103411   -0.689867   -2.481842

ORBITAL ENERGIES
----------------
                 SPIN UP ORBITALS
  NO   OCC          E(Eh)            E(eV)
   0   1.0000    -261.552252     -7117.1986
   1   1.0000    -104.778528     -2851.1687
   2   1.0000    -104.774702     -2851.0646
   3   1.0000    -104.774127     -2851.0490
   4   1.0000     -32.220154      -876.7550
   5   1.0000     -27.696150      -753.6505
   6   1.0000     -27.695799      -753.6410
   7   1.0000     -27.695566      -753.6347
   8   1.0000     -20.557671      -559.4027
   9   1.0000     -11.385793      -309.8232
  10   1.0000     -11.356767      -309.0333
  11   1.0000     -11.281946      -306.9974
  12   1.0000     -11.277612      -306.8794
  13   1.0000     -11.260077      -306.4023
  14   1.0000     -11.255653      -306.2819
  15   1.0000     -11.249492      -306.1142
  16   1.0000     -11.248914      -306.0985
  17   1.0000     -10.505167      -285.8601
  18   1.0000     -10.501279      -285.7543
  19   1.0000     -10.500760      -285.7402
  20   1.0000      -7.972055      -216.9307
  21   1.0000      -7.971199      -216.9074
  22   1.0000      -7.971162      -216.9063
  23   1.0000      -7.968101      -216.8230
  24   1.0000      -7.967589      -216.8091
  25   1.0000      -7.967376      -216.8033
  26   1.0000      -7.967297      -216.8012
  27   1.0000      -7.966864      -216.7894
  28   1.0000      -7.966795      -216.7875
  29   1.0000      -4.575494      -124.5055
  30   1.0000      -3.188115       -86.7530
  31   1.0000      -3.187483       -86.7358
  32   1.0000      -3.187060       -86.7243
  33   1.0000      -1.400391       -38.1066
  34   1.0000      -1.177052       -32.0292
  35   1.0000      -1.082858       -29.4661
  36   1.0000      -1.049474       -28.5576
  37   1.0000      -1.044281       -28.4163
  38   1.0000      -1.041586       -28.3430
  39   1.0000      -1.041187       -28.3321
  40   1.0000      -1.000097       -27.2140
  41   1.0000      -0.982018       -26.7221
  42   1.0000      -0.928762       -25.2729
  43   1.0000      -0.917082       -24.9551
  44   1.0000      -0.904863       -24.6226
  45   1.0000      -0.904815       -24.6213
  46   1.0000      -0.896008       -24.3816
  47   1.0000      -0.895404       -24.3652
  48   1.0000      -0.788306       -21.4509
  49   1.0000      -0.765450       -20.8290
  50   1.0000      -0.697683       -18.9849
  51   1.0000      -0.689778       -18.7698
  52   1.0000      -0.672279       -18.2936
  53   1.0000      -0.657936       -17.9033
  54   1.0000      -0.650655       -17.7052
  55   1.0000      -0.627641       -17.0790
  56   1.0000      -0.599440       -16.3116
  57   1.0000      -0.594170       -16.1682
  58   1.0000      -0.587236       -15.9795
  59   1.0000      -0.578391       -15.7388
  60   1.0000      -0.574040       -15.6204
  61   1.0000      -0.564911       -15.3720
  62   1.0000      -0.553870       -15.0716
  63   1.0000      -0.547468       -14.8974
  64   1.0000      -0.532230       -14.4827
  65   1.0000      -0.526293       -14.3212
  66   1.0000      -0.514540       -14.0014
  67   1.0000      -0.475460       -12.9379
  68   1.0000      -0.463211       -12.6046
  69   1.0000      -0.453904       -12.3513
  70   1.0000      -0.428502       -11.6601
  71   1.0000      -0.427321       -11.6280
  72   1.0000      -0.424659       -11.5556
  73   1.0000      -0.415867       -11.3163
  74   1.0000      -0.414381       -11.2759
  75   1.0000      -0.413826       -11.2608
  76   1.0000      -0.391206       -10.6453
  77   0.0000       0.007915         0.2154
  78   0.0000       0.017843         0.4855
  79   0.0000       0.020663         0.5623
  80   0.0000       0.021638         0.5888
  81   0.0000       0.030827         0.8388

                 SPIN DOWN ORBITALS
  NO   OCC          E(Eh)            E(eV)
   0   1.0000    -261.548702     -7117.1020
   1   1.0000    -104.777158     -2851.1314
   2   1.0000    -104.773306     -2851.0266
   3   1.0000    -104.772671     -2851.0093
   4   1.0000     -32.058090      -872.3450
   5   1.0000     -27.536126      -749.2961
   6   1.0000     -27.535989      -749.2924
   7   1.0000     -27.535577      -749.2811
   8   1.0000     -20.552593      -559.2645
   9   1.0000     -11.385762      -309.8223
  10   1.0000     -11.356695      -309.0314
  11   1.0000     -11.281956      -306.9976
  12   1.0000     -11.277454      -306.8751
  13   1.0000     -11.260113      -306.4032
  14   1.0000     -11.255537      -306.2787
  15   1.0000     -11.249510      -306.1147
  16   1.0000     -11.248881      -306.0976
  17   1.0000     -10.503694      -285.8200
  18   1.0000     -10.499786      -285.7137
  19   1.0000     -10.499202      -285.6978
  20   1.0000      -7.969560      -216.8628
  21   1.0000      -7.969044      -216.8487
  22   1.0000      -7.968974      -216.8468
  23   1.0000      -7.965744      -216.7589
  24   1.0000      -7.965152      -216.7428
  25   1.0000      -7.965061      -216.7403
  26   1.0000      -7.964965      -216.7377
  27   1.0000      -7.964434      -216.7233
  28   1.0000      -7.964355      -216.7211
  29   1.0000      -4.133209      -112.4703
  30   1.0000      -2.655020       -72.2468
  31   1.0000      -2.654970       -72.2454
  32   1.0000      -2.654051       -72.2204
  33   1.0000      -1.387433       -37.7540
  34   1.0000      -1.176256       -32.0076
  35   1.0000      -1.080086       -29.3906
  36   1.0000      -1.041800       -28.3488
  37   1.0000      -1.034622       -28.1535
  38   1.0000      -1.023140       -27.8411
  39   1.0000      -1.020586       -27.7716
  40   1.0000      -0.999973       -27.2107
  41   1.0000      -0.981182       -26.6993
  42   1.0000      -0.926596       -25.2140
  43   1.0000      -0.800134       -21.7727
  44   1.0000      -0.767146       -20.8751
  45   1.0000      -0.698333       -19.0026
  46   1.0000      -0.689089       -18.7511
  47   1.0000      -0.673675       -18.3316
  48   1.0000      -0.658243       -17.9117
  49   1.0000      -0.649769       -17.6811
  50   1.0000      -0.627099       -17.0642
  51   1.0000      -0.598375       -16.2826
  52   1.0000      -0.594465       -16.1762
  53   1.0000      -0.587107       -15.9760
  54   1.0000      -0.577872       -15.7247
  55   1.0000      -0.573810       -15.6142
  56   1.0000      -0.564290       -15.3551
  57   1.0000      -0.553711       -15.0673
  58   1.0000      -0.546584       -14.8733
  59   1.0000      -0.527315       -14.3490
  60   1.0000      -0.526187       -14.3183
  61   1.0000      -0.505594       -13.7579
  62   1.0000      -0.474272       -12.9056
  63   1.0000      -0.467682       -12.7263
  64   1.0000      -0.462430       -12.5834
  65   1.0000      -0.439122       -11.9491
  66   1.0000      -0.435752       -11.8574
  67   1.0000      -0.433710       -11.8019
  68   1.0000      -0.423167       -11.5150
  69   1.0000      -0.413373       -11.2484
  70   1.0000      -0.400607       -10.9011
  71   1.0000      -0.386202       -10.5091
  72   0.0000       0.007912         0.2153
  73   0.0000       0.017479         0.4756
  74   0.0000       0.020571         0.5598
  75   0.0000       0.021575         0.5871
  76   0.0000       0.030789         0.8378

E(0)                                       ...  -3028.426068400
E(0)                                       ...  -3028.426068400
E(CORR)(strong-pairs)                      ...     -2.874630101
E(CORR)(weak-pairs)                        ...     -0.036487801
E(CORR)(corrected)                         ...     -2.911117902
E(TOT)                                     ...  -3031.337186302
E(CCSD(T))                                 ...  -3031.457307932
FINAL SINGLE POINT ENERGY     -3031.457307932213

DIPOLE MOMENT
-------------
                                X             Y             Z
Electronic contribution:     40.86639       5.86394       1.05023
Nuclear contribution   :    -45.63818      -6.20396      -1.45009
                        -----------------------------------------
Total Dipole Moment    :     -4.77179      -0.34002      -0.39986
                        -----------------------------------------
Magnitude (a.u.)       :      4.80057
Magnitude (Debye)      :     12.20208

Rotational constants in cm-1:     0.019215     0.011259     0.010541
Rotational constants in MHz :   576.053478   337.547692   316.018769

                             ****ORCA TERMINATED NORMALLY****
TOTAL RUN TIME: 0 days 21 hours 30 minutes 50 seconds 745 msec
