                         Program Version 4.1.2  - RELEASE  -
|  1> ! aug-cc-pVTZ aug-cc-pVTZ/C DLPNO-CCSD(T1) TightSCF NormalPNO UNO MiniPrint AutoAux
|  2> %pal nproc 10 end
|  3> %maxcore 20000
|  4> %mdci
|  5>      density none
|  6> end
|  7>
|  8> * xyz 0 6
|  9>  O     -0.32537100     -0.15721200     -0.47990400
| 10>  C     -1.17818200     -1.12046500     -0.28939300
| 11>  C     -2.64867200     -0.31687800      0.80235300
| 12>  C     -2.95186400      0.72015600     -0.06539900
| 13>  C     -3.98687900      0.57833400     -1.13195400
| 14> Fe      1.50449900      0.17586200     -0.08586300
| 15> Cl      1.82511400      2.16347000     -0.95628000
| 16>  C     -2.19795400      1.99309700     -0.02357200
| 17> Cl      2.55399000     -1.49742900     -1.04812000
| 18> Cl      1.75172500      0.16798200      2.10709400
| 19>  H     -3.33275900     -1.16467000      0.77037900
| 20>  H     -2.64649800      2.77149200     -0.64442100
| 21>  H     -2.04552400      2.36323300      0.99417300
| 22>  H     -1.18945600      1.76769600     -0.41895100
| 23>  H     -4.80688700      1.27433500     -0.90366900
| 24>  H     -3.59498500      0.88281100     -2.11051400
| 25>  H     -4.40204700     -0.42890900     -1.19786600
| 26>  C     -2.02187600     -0.02485700      2.15438100
| 27>  H     -2.64122600      0.69294300      2.70456800
| 28>  H     -1.95552400     -0.93074800      2.75882000
| 29>  H     -1.01714500      0.39504800      2.06602600
| 30>  C     -0.75623900     -2.22447200      0.67143600
| 31>  H     -1.58378600     -2.88637200      0.93760600
| 32>  H     -0.00099600     -2.81038500      0.13155500
| 33>  H     -0.28124500     -1.82918800      1.56834500
| 34>  C     -1.82371800     -1.64293400     -1.56172100
| 35>  H     -1.07214900     -2.27406500     -2.05108300
| 36>  H     -2.70825300     -2.25466600     -1.36598200
| 37>  H     -2.06732100     -0.83355000     -2.24990200
| 38> *
| 39>
| 40>
| 41>                          ****END OF INPUT****

CARTESIAN COORDINATES (ANGSTROEM)
---------------------------------
  O     -0.325371   -0.157212   -0.479904
  C     -1.178182   -1.120465   -0.289393
  C     -2.648672   -0.316878    0.802353
  C     -2.951864    0.720156   -0.065399
  C     -3.986879    0.578334   -1.131954
  Fe     1.504499    0.175862   -0.085863
  Cl     1.825114    2.163470   -0.956280
  C     -2.197954    1.993097   -0.023572
  Cl     2.553990   -1.497429   -1.048120
  Cl     1.751725    0.167982    2.107094
  H     -3.332759   -1.164670    0.770379
  H     -2.646498    2.771492   -0.644421
  H     -2.045524    2.363233    0.994173
  H     -1.189456    1.767696   -0.418951
  H     -4.806887    1.274335   -0.903669
  H     -3.594985    0.882811   -2.110514
  H     -4.402047   -0.428909   -1.197866
  C     -2.021876   -0.024857    2.154381
  H     -2.641226    0.692943    2.704568
  H     -1.955524   -0.930748    2.758820
  H     -1.017145    0.395048    2.066026
  C     -0.756239   -2.224472    0.671436
  H     -1.583786   -2.886372    0.937606
  H     -0.000996   -2.810385    0.131555
  H     -0.281245   -1.829188    1.568345
  C     -1.823718   -1.642934   -1.561721
  H     -1.072149   -2.274065   -2.051083
  H     -2.708253   -2.254666   -1.365982
  H     -2.067321   -0.833550   -2.249902

ORBITAL ENERGIES
----------------
                 SPIN UP ORBITALS
  NO   OCC          E(Eh)            E(eV)
   0   1.0000    -261.554027     -7117.2469
   1   1.0000    -104.777703     -2851.1462
   2   1.0000    -104.774986     -2851.0723
   3   1.0000    -104.774804     -2851.0674
   4   1.0000     -32.221897      -876.8024
   5   1.0000     -27.698041      -753.7020
   6   1.0000     -27.697429      -753.6853
   7   1.0000     -27.697268      -753.6810
   8   1.0000     -20.568424      -559.6953
   9   1.0000     -11.391902      -309.9894
  10   1.0000     -11.344607      -308.7024
  11   1.0000     -11.281832      -306.9943
  12   1.0000     -11.275620      -306.8252
  13   1.0000     -11.259442      -306.3850
  14   1.0000     -11.258874      -306.3695
  15   1.0000     -11.253290      -306.2176
  16   1.0000     -11.247877      -306.0703
  17   1.0000     -10.504340      -285.8376
  18   1.0000     -10.501614      -285.7634
  19   1.0000     -10.501397      -285.7575
  20   1.0000      -7.971200      -216.9074
  21   1.0000      -7.970391      -216.8854
  22   1.0000      -7.970359      -216.8845
  23   1.0000      -7.968472      -216.8331
  24   1.0000      -7.968214      -216.8261
  25   1.0000      -7.967714      -216.8125
  26   1.0000      -7.967634      -216.8103
  27   1.0000      -7.967516      -216.8071
  28   1.0000      -7.967426      -216.8047
  29   1.0000      -4.577190      -124.5517
  30   1.0000      -3.190022       -86.8049
  31   1.0000      -3.189021       -86.7777
  32   1.0000      -3.188653       -86.7677
  33   1.0000      -1.410397       -38.3789
  34   1.0000      -1.173554       -31.9340
  35   1.0000      -1.082321       -29.4515
  36   1.0000      -1.049420       -28.5562
  37   1.0000      -1.044532       -28.4232
  38   1.0000      -1.041952       -28.3529
  39   1.0000      -1.041570       -28.3426
  40   1.0000      -0.998088       -27.1594
  41   1.0000      -0.985751       -26.8236
  42   1.0000      -0.925812       -25.1926
  43   1.0000      -0.918770       -25.0010
  44   1.0000      -0.906524       -24.6678
  45   1.0000      -0.906489       -24.6668
  46   1.0000      -0.896983       -24.4081
  47   1.0000      -0.896590       -24.3975
  48   1.0000      -0.791573       -21.5398
  49   1.0000      -0.764093       -20.7920
  50   1.0000      -0.693537       -18.8721
  51   1.0000      -0.688953       -18.7474
  52   1.0000      -0.673888       -18.3374
  53   1.0000      -0.667919       -18.1750
  54   1.0000      -0.652539       -17.7565
  55   1.0000      -0.626311       -17.0428
  56   1.0000      -0.602707       -16.4005
  57   1.0000      -0.596228       -16.2242
  58   1.0000      -0.587410       -15.9842
  59   1.0000      -0.577481       -15.7141
  60   1.0000      -0.571295       -15.5457
  61   1.0000      -0.567261       -15.4360
  62   1.0000      -0.557676       -15.1751
  63   1.0000      -0.543974       -14.8023
  64   1.0000      -0.533077       -14.5058
  65   1.0000      -0.524479       -14.2718
  66   1.0000      -0.514395       -13.9974
  67   1.0000      -0.478348       -13.0165
  68   1.0000      -0.463643       -12.6164
  69   1.0000      -0.454357       -12.3637
  70   1.0000      -0.430475       -11.7138
  71   1.0000      -0.426999       -11.6192
  72   1.0000      -0.424164       -11.5421
  73   1.0000      -0.415957       -11.3188
  74   1.0000      -0.414153       -11.2697
  75   1.0000      -0.413665       -11.2564
  76   1.0000      -0.388282       -10.5657
  77   0.0000       0.007548         0.2054
  78   0.0000       0.019523         0.5312
  79   0.0000       0.020461         0.5568
  80   0.0000       0.023321         0.6346
  81   0.0000       0.030851         0.8395

                 SPIN DOWN ORBITALS
  NO   OCC          E(Eh)            E(eV)
   0   1.0000    -261.550469     -7117.1501
   1   1.0000    -104.776280     -2851.1075
   2   1.0000    -104.773521     -2851.0325
   3   1.0000    -104.773367     -2851.0283
   4   1.0000     -32.059827      -872.3922
   5   1.0000     -27.537815      -749.3420
   6   1.0000     -27.537722      -749.3395
   7   1.0000     -27.537384      -749.3303
   8   1.0000     -20.563886      -559.5718
   9   1.0000     -11.391896      -309.9892
  10   1.0000     -11.344143      -308.6898
  11   1.0000     -11.281896      -306.9960
  12   1.0000     -11.275704      -306.8275
  13   1.0000     -11.259337      -306.3821
  14   1.0000     -11.258940      -306.3713
  15   1.0000     -11.253288      -306.2175
  16   1.0000     -11.247884      -306.0705
  17   1.0000     -10.502815      -285.7961
  18   1.0000     -10.500047      -285.7208
  19   1.0000     -10.499863      -285.7158
  20   1.0000      -7.968708      -216.8396
  21   1.0000      -7.968095      -216.8229
  22   1.0000      -7.968026      -216.8210
  23   1.0000      -7.965965      -216.7649
  24   1.0000      -7.965832      -216.7613
  25   1.0000      -7.965301      -216.7469
  26   1.0000      -7.965211      -216.7444
  27   1.0000      -7.965104      -216.7415
  28   1.0000      -7.965004      -216.7388
  29   1.0000      -4.134879      -112.5158
  30   1.0000      -2.656598       -72.2897
  31   1.0000      -2.656559       -72.2887
  32   1.0000      -2.655849       -72.2693
  33   1.0000      -1.398810       -38.0636
  34   1.0000      -1.172253       -31.8986
  35   1.0000      -1.079744       -29.3813
  36   1.0000      -1.042375       -28.3645
  37   1.0000      -1.034299       -28.1447
  38   1.0000      -1.022630       -27.8272
  39   1.0000      -1.020907       -27.7803
  40   1.0000      -0.997997       -27.1569
  41   1.0000      -0.985081       -26.8054
  42   1.0000      -0.922399       -25.0997
  43   1.0000      -0.805359       -21.9149
  44   1.0000      -0.764790       -20.8110
  45   1.0000      -0.694621       -18.9016
  46   1.0000      -0.688548       -18.7363
  47   1.0000      -0.675542       -18.3824
  48   1.0000      -0.666919       -18.1478
  49   1.0000      -0.652204       -17.7474
  50   1.0000      -0.625725       -17.0268
  51   1.0000      -0.602396       -16.3920
  52   1.0000      -0.595748       -16.2111
  53   1.0000      -0.587223       -15.9792
  54   1.0000      -0.577313       -15.7095
  55   1.0000      -0.571162       -15.5421
  56   1.0000      -0.566739       -15.4217
  57   1.0000      -0.557529       -15.1711
  58   1.0000      -0.543370       -14.7859
  59   1.0000      -0.531015       -14.4497
  60   1.0000      -0.522821       -14.2267
  61   1.0000      -0.505896       -13.7661
  62   1.0000      -0.476047       -12.9539
  63   1.0000      -0.467835       -12.7304
  64   1.0000      -0.464629       -12.6432
  65   1.0000      -0.438872       -11.9423
  66   1.0000      -0.435785       -11.8583
  67   1.0000      -0.433844       -11.8055
  68   1.0000      -0.422354       -11.4928
  69   1.0000      -0.413758       -11.2589
  70   1.0000      -0.399595       -10.8735
  71   1.0000      -0.385262       -10.4835
  72   0.0000       0.007555         0.2056
  73   0.0000       0.019515         0.5310
  74   0.0000       0.020538         0.5589
  75   0.0000       0.023182         0.6308
  76   0.0000       0.030681         0.8349

E(0)                                       ...  -3028.430376153
E(0)                                       ...  -3028.430376153
E(CORR)(strong-pairs)                      ...     -2.875419427
E(CORR)(weak-pairs)                        ...     -0.035650463
E(CORR)(corrected)                         ...     -2.911069890
E(TOT)                                     ...  -3031.341446044
E(CCSD(T))                                 ...  -3031.462062067
FINAL SINGLE POINT ENERGY     -3031.462062066968

DIPOLE MOMENT
-------------
                                X             Y             Z
Electronic contribution:     43.13290       6.21700      -1.25674
Nuclear contribution   :    -48.05919      -6.87336       1.12069
                        -----------------------------------------
Total Dipole Moment    :     -4.92629      -0.65636      -0.13605
                        -----------------------------------------
Magnitude (a.u.)       :      4.97169
Magnitude (Debye)      :     12.63702

Rotational constants in cm-1:     0.019658     0.010369     0.009900
Rotational constants in MHz :   589.326936   310.846643   296.795102

                             ****ORCA TERMINATED NORMALLY****
TOTAL RUN TIME: 0 days 22 hours 15 minutes 22 seconds 587 msec
