                         Program Version 4.1.2  - RELEASE  -
|  1> ! aug-cc-pVTZ aug-cc-pVTZ/C DLPNO-CCSD(T1) TightSCF NormalPNO UNO MiniPrint AutoAux
|  2> %pal nproc 10 end
|  3> %maxcore 20000
|  4> %mdci
|  5>      density none
|  6> end
|  7>
|  8> * xyz 0 6
|  9>  O      0.15962600      0.48214900     -0.87752400
| 10>  C      0.87664100      1.47536200     -0.64014700
| 11>  C      3.20302100      0.00788600      0.55754700
| 12>  C      2.68193100     -0.92016600     -0.26600400
| 13>  C      3.09900500     -1.00336900     -1.71168000
| 14> Fe     -1.48612500     -0.18558400      0.02303900
| 15> Cl     -2.05951400     -1.94542100     -1.11093400
| 16>  C      1.72917100     -2.00157100      0.15994200
| 17> Cl     -2.77620100      1.56418900     -0.22444200
| 18> Cl     -1.01667200     -0.56219800      2.12924100
| 19>  H      3.93762600      0.69466000      0.13316500
| 20>  H      2.22279500     -2.98008900      0.08421100
| 21>  H      1.36252200     -1.88858200      1.17998900
| 22>  H      0.86481300     -2.04706200     -0.51382900
| 23>  H      3.58440700     -1.96760200     -1.91273700
| 24>  H      2.22494700     -0.95612800     -2.37446900
| 25>  H      3.79976200     -0.21044500     -1.99065200
| 26>  C      2.98349600      0.14370400      2.03871100
| 27>  H      3.82925100     -0.28349600      2.59510400
| 28>  H      2.91914600      1.19708800      2.33600500
| 29>  H      2.07514500     -0.35714100      2.38238800
| 30>  C      0.74716600      2.24283300      0.63595500
| 31>  H      1.61025900      2.88592500      0.81397000
| 32>  H     -0.14961900      2.87262500      0.53981600
| 33>  H      0.58268900      1.57427600      1.48268600
| 34>  C      1.72133900      2.03374600     -1.74040700
| 35>  H      1.23547900      2.95968400     -2.08078900
| 36>  H      2.71527400      2.30210900     -1.37592700
| 37>  H      1.78771000      1.33994900     -2.57697700
| 38> *
| 39>
| 40>
| 41>                          ****END OF INPUT****

CARTESIAN COORDINATES (ANGSTROEM)
---------------------------------
  O      0.159626    0.482149   -0.877524
  C      0.876641    1.475362   -0.640147
  C      3.203021    0.007886    0.557547
  C      2.681931   -0.920166   -0.266004
  C      3.099005   -1.003369   -1.711680
  Fe    -1.486125   -0.185584    0.023039
  Cl    -2.059514   -1.945421   -1.110934
  C      1.729171   -2.001571    0.159942
  Cl    -2.776201    1.564189   -0.224442
  Cl    -1.016672   -0.562198    2.129241
  H      3.937626    0.694660    0.133165
  H      2.222795   -2.980089    0.084211
  H      1.362522   -1.888582    1.179989
  H      0.864813   -2.047062   -0.513829
  H      3.584407   -1.967602   -1.912737
  H      2.224947   -0.956128   -2.374469
  H      3.799762   -0.210445   -1.990652
  C      2.983496    0.143704    2.038711
  H      3.829251   -0.283496    2.595104
  H      2.919146    1.197088    2.336005
  H      2.075145   -0.357141    2.382388
  C      0.747166    2.242833    0.635955
  H      1.610259    2.885925    0.813970
  H     -0.149619    2.872625    0.539816
  H      0.582689    1.574276    1.482686
  C      1.721339    2.033746   -1.740407
  H      1.235479    2.959684   -2.080789
  H      2.715274    2.302109   -1.375927
  H      1.787710    1.339949   -2.576977

ORBITAL ENERGIES
----------------
                 SPIN UP ORBITALS
  NO   OCC          E(Eh)            E(eV)
   0   1.0000    -261.579868     -7117.9501
   1   1.0000    -104.796459     -2851.6566
   2   1.0000    -104.793517     -2851.5766
   3   1.0000    -104.791560     -2851.5233
   4   1.0000     -32.247508      -877.4993
   5   1.0000     -27.724078      -754.4105
   6   1.0000     -27.722795      -754.3756
   7   1.0000     -27.722599      -754.3703
   8   1.0000     -20.630321      -561.3796
   9   1.0000     -11.422470      -310.8212
  10   1.0000     -11.280483      -306.9576
  11   1.0000     -11.274469      -306.7939
  12   1.0000     -11.255743      -306.2843
  13   1.0000     -11.238226      -305.8077
  14   1.0000     -11.237098      -305.7770
  15   1.0000     -11.233249      -305.6722
  16   1.0000     -11.224457      -305.4330
  17   1.0000     -10.523206      -286.3510
  18   1.0000     -10.520229      -286.2700
  19   1.0000     -10.518220      -286.2153
  20   1.0000      -7.990023      -217.4196
  21   1.0000      -7.989300      -217.3999
  22   1.0000      -7.989239      -217.3982
  23   1.0000      -7.987121      -217.3406
  24   1.0000      -7.986320      -217.3188
  25   1.0000      -7.986268      -217.3174
  26   1.0000      -7.984997      -217.2828
  27   1.0000      -7.984352      -217.2653
  28   1.0000      -7.984312      -217.2642
  29   1.0000      -4.602227      -125.2330
  30   1.0000      -3.215410       -87.4957
  31   1.0000      -3.213535       -87.4447
  32   1.0000      -3.213429       -87.4419
  33   1.0000      -1.473499       -40.0960
  34   1.0000      -1.116906       -30.3926
  35   1.0000      -1.104388       -30.0519
  36   1.0000      -1.070151       -29.1203
  37   1.0000      -1.064311       -28.9614
  38   1.0000      -1.061572       -28.8868
  39   1.0000      -1.020781       -27.7769
  40   1.0000      -1.007964       -27.4281
  41   1.0000      -0.952143       -25.9091
  42   1.0000      -0.945689       -25.7335
  43   1.0000      -0.931045       -25.3350
  44   1.0000      -0.930892       -25.3309
  45   1.0000      -0.919877       -25.0311
  46   1.0000      -0.919260       -25.0143
  47   1.0000      -0.889570       -24.2064
  48   1.0000      -0.818683       -22.2775
  49   1.0000      -0.722255       -19.6535
  50   1.0000      -0.717383       -19.5210
  51   1.0000      -0.707315       -19.2470
  52   1.0000      -0.684575       -18.6282
  53   1.0000      -0.648034       -17.6339
  54   1.0000      -0.621551       -16.9133
  55   1.0000      -0.614819       -16.7301
  56   1.0000      -0.603798       -16.4302
  57   1.0000      -0.599977       -16.3262
  58   1.0000      -0.586733       -15.9658
  59   1.0000      -0.580348       -15.7921
  60   1.0000      -0.561404       -15.2766
  61   1.0000      -0.547410       -14.8958
  62   1.0000      -0.545972       -14.8566
  63   1.0000      -0.538036       -14.6407
  64   1.0000      -0.534608       -14.5474
  65   1.0000      -0.521348       -14.1866
  66   1.0000      -0.507614       -13.8129
  67   1.0000      -0.486819       -13.2470
  68   1.0000      -0.479833       -13.0569
  69   1.0000      -0.478452       -13.0194
  70   1.0000      -0.449790       -12.2394
  71   1.0000      -0.443197       -12.0600
  72   1.0000      -0.441387       -12.0107
  73   1.0000      -0.432827       -11.7778
  74   1.0000      -0.431814       -11.7502
  75   1.0000      -0.430573       -11.7165
  76   1.0000      -0.353962        -9.6318
  77   0.0000       0.012682         0.3451
  78   0.0000       0.024048         0.6544
  79   0.0000       0.024985         0.6799
  80   0.0000       0.031047         0.8448
  81   0.0000       0.039578         1.0770

                 SPIN DOWN ORBITALS
  NO   OCC          E(Eh)            E(eV)
   0   1.0000    -261.576277     -7117.8524
   1   1.0000    -104.794949     -2851.6155
   2   1.0000    -104.791947     -2851.5338
   3   1.0000    -104.789972     -2851.4801
   4   1.0000     -32.085549      -873.0922
   5   1.0000     -27.563519      -750.0415
   6   1.0000     -27.563357      -750.0371
   7   1.0000     -27.563296      -750.0354
   8   1.0000     -20.627048      -561.2905
   9   1.0000     -11.422414      -310.8197
  10   1.0000     -11.280381      -306.9548
  11   1.0000     -11.274463      -306.7937
  12   1.0000     -11.255786      -306.2855
  13   1.0000     -11.238171      -305.8062
  14   1.0000     -11.237092      -305.7768
  15   1.0000     -11.233253      -305.6724
  16   1.0000     -11.224464      -305.4332
  17   1.0000     -10.521595      -286.3071
  18   1.0000     -10.518553      -286.2244
  19   1.0000     -10.516534      -286.1695
  20   1.0000      -7.987531      -217.3518
  21   1.0000      -7.986741      -217.3303
  22   1.0000      -7.986706      -217.3293
  23   1.0000      -7.984418      -217.2671
  24   1.0000      -7.983744      -217.2487
  25   1.0000      -7.983651      -217.2462
  26   1.0000      -7.982536      -217.2158
  27   1.0000      -7.981596      -217.1903
  28   1.0000      -7.981516      -217.1881
  29   1.0000      -4.160244      -113.2060
  30   1.0000      -2.681780       -72.9750
  31   1.0000      -2.681722       -72.9734
  32   1.0000      -2.681334       -72.9628
  33   1.0000      -1.465602       -39.8811
  34   1.0000      -1.116597       -30.3841
  35   1.0000      -1.102295       -29.9950
  36   1.0000      -1.054265       -28.6880
  37   1.0000      -1.041606       -28.3435
  38   1.0000      -1.038493       -28.2588
  39   1.0000      -1.019738       -27.7485
  40   1.0000      -1.007826       -27.4243
  41   1.0000      -0.951972       -25.9045
  42   1.0000      -0.889628       -24.2080
  43   1.0000      -0.830649       -22.6031
  44   1.0000      -0.722470       -19.6594
  45   1.0000      -0.718613       -19.5544
  46   1.0000      -0.706620       -19.2281
  47   1.0000      -0.684053       -18.6140
  48   1.0000      -0.647999       -17.6329
  49   1.0000      -0.620939       -16.8966
  50   1.0000      -0.614741       -16.7280
  51   1.0000      -0.603709       -16.4278
  52   1.0000      -0.599914       -16.3245
  53   1.0000      -0.586433       -15.9577
  54   1.0000      -0.578880       -15.7521
  55   1.0000      -0.560549       -15.2533
  56   1.0000      -0.546012       -14.8577
  57   1.0000      -0.544311       -14.8115
  58   1.0000      -0.534723       -14.5505
  59   1.0000      -0.527763       -14.3612
  60   1.0000      -0.521192       -14.1824
  61   1.0000      -0.509456       -13.8630
  62   1.0000      -0.488900       -13.3036
  63   1.0000      -0.486272       -13.2321
  64   1.0000      -0.484722       -13.1900
  65   1.0000      -0.456606       -12.4249
  66   1.0000      -0.453604       -12.3432
  67   1.0000      -0.450390       -12.2557
  68   1.0000      -0.433838       -11.8053
  69   1.0000      -0.432156       -11.7596
  70   1.0000      -0.415743       -11.3130
  71   1.0000      -0.353677        -9.6240
  72   0.0000       0.012665         0.3446
  73   0.0000       0.024023         0.6537
  74   0.0000       0.024944         0.6787
  75   0.0000       0.031000         0.8436
  76   0.0000       0.039511         1.0751

E(0)                                       ...  -3028.475826659
E(0)                                       ...  -3028.475826659
E(CORR)(strong-pairs)                      ...     -2.863734563
E(CORR)(weak-pairs)                        ...     -0.035699189
E(CORR)(corrected)                         ...     -2.899433752
E(TOT)                                     ...  -3031.375260410
E(CCSD(T))                                 ...  -3031.492541296
FINAL SINGLE POINT ENERGY     -3031.492541295988

DIPOLE MOMENT
-------------
                                X             Y             Z
Electronic contribution:    -43.87957      -5.22929       1.83435
Nuclear contribution   :     46.88863       6.94044      -2.42403
                        -----------------------------------------
Total Dipole Moment    :      3.00906       1.71115      -0.58968
                        -----------------------------------------
Magnitude (a.u.)       :      3.51144
Magnitude (Debye)      :      8.92537

Rotational constants in cm-1:     0.018579     0.010550     0.009931
Rotational constants in MHz :   556.973486   316.283587   297.737209

                             ****ORCA TERMINATED NORMALLY****
TOTAL RUN TIME: 0 days 16 hours 26 minutes 28 seconds 293 msec
