                         Program Version 4.1.2  - RELEASE  -
|  1> ! aug-cc-pVTZ aug-cc-pVTZ/C DLPNO-CCSD(T1) TightSCF NormalPNO UNO MiniPrint AutoAux
|  2> %pal nproc 10 end
|  3> %maxcore 20000
|  4> %mdci
|  5>      density none
|  6> end
|  7>
|  8> * xyz 0 6
|  9>  O      0.25691700      0.28418900     -0.82685300
| 10>  C      1.07462200      1.23045600     -0.65698900
| 11>  C      3.01293000      0.12698600      0.47231000
| 12>  C      2.55220300     -0.97394300     -0.16441700
| 13>  C      2.96573600     -1.30745500     -1.56921600
| 14> Fe     -1.45715600     -0.13633600      0.01601300
| 15> Cl     -2.07937600     -2.00343000     -0.91756900
| 16>  C      1.63759000     -1.98098400      0.46238700
| 17> Cl     -2.63834500      1.63175800     -0.50960300
| 18> Cl     -1.13239300     -0.28947600      2.18639900
| 19>  H      3.74105600      0.74003200     -0.05759400
| 20>  H      2.17694300     -2.92942200      0.59090400
| 21>  H      1.24633200     -1.67929300      1.43303600
| 22>  H      0.79212700     -2.19763700     -0.20166200
| 23>  H      3.42202400     -2.30538800     -1.59151400
| 24>  H      2.08878400     -1.35484300     -2.22827200
| 25>  H      3.68932200     -0.59714800     -1.97766200
| 26>  C      2.88142200      0.40974000      1.94695400
| 27>  H      3.68692500     -0.09722000      2.49508100
| 28>  H      2.97852800      1.47764100      2.16229600
| 29>  H      1.93336300      0.06477100      2.36691400
| 30>  C      0.88855200      2.20063300      0.47064100
| 31>  H      1.77237700      2.81756400      0.63597800
| 32>  H      0.06003800      2.85519400      0.16079400
| 33>  H      0.58233300      1.70658000      1.39227700
| 34>  C      1.84180300      1.70493500     -1.85854300
| 35>  H      1.18926200      2.44116800     -2.35037100
| 36>  H      2.77179000      2.20824400     -1.59103900
| 37>  H      2.02229300      0.89830400     -2.56630700
| 38> *
| 39>
| 40>
| 41>                          ****END OF INPUT****

CARTESIAN COORDINATES (ANGSTROEM)
---------------------------------
  O      0.256917    0.284189   -0.826853
  C      1.074622    1.230456   -0.656989
  C      3.012930    0.126986    0.472310
  C      2.552203   -0.973943   -0.164417
  C      2.965736   -1.307455   -1.569216
  Fe    -1.457156   -0.136336    0.016013
  Cl    -2.079376   -2.003430   -0.917569
  C      1.637590   -1.980984    0.462387
  Cl    -2.638345    1.631758   -0.509603
  Cl    -1.132393   -0.289476    2.186399
  H      3.741056    0.740032   -0.057594
  H      2.176943   -2.929422    0.590904
  H      1.246332   -1.679293    1.433036
  H      0.792127   -2.197637   -0.201662
  H      3.422024   -2.305388   -1.591514
  H      2.088784   -1.354843   -2.228272
  H      3.689322   -0.597148   -1.977662
  C      2.881422    0.409740    1.946954
  H      3.686925   -0.097220    2.495081
  H      2.978528    1.477641    2.162296
  H      1.933363    0.064771    2.366914
  C      0.888552    2.200633    0.470641
  H      1.772377    2.817564    0.635978
  H      0.060038    2.855194    0.160794
  H      0.582333    1.706580    1.392277
  C      1.841803    1.704935   -1.858543
  H      1.189262    2.441168   -2.350371
  H      2.771790    2.208244   -1.591039
  H      2.022293    0.898304   -2.566307

ORBITAL ENERGIES
----------------
                 SPIN UP ORBITALS
  NO   OCC          E(Eh)            E(eV)
   0   1.0000    -261.573239     -7117.7697
   1   1.0000    -104.792034     -2851.5362
   2   1.0000    -104.788791     -2851.4480
   3   1.0000    -104.787140     -2851.4030
   4   1.0000     -32.240972      -877.3215
   5   1.0000     -27.717382      -754.2283
   6   1.0000     -27.716351      -754.2003
   7   1.0000     -27.716174      -754.1954
   8   1.0000     -20.610985      -560.8534
   9   1.0000     -11.420596      -310.7702
  10   1.0000     -11.276850      -306.8587
  11   1.0000     -11.275765      -306.8292
  12   1.0000     -11.269755      -306.6656
  13   1.0000     -11.247752      -306.0669
  14   1.0000     -11.246550      -306.0342
  15   1.0000     -11.239896      -305.8531
  16   1.0000     -11.232535      -305.6528
  17   1.0000     -10.518738      -286.2294
  18   1.0000     -10.515472      -286.1405
  19   1.0000     -10.513771      -286.0942
  20   1.0000      -7.985578      -217.2986
  21   1.0000      -7.984808      -217.2777
  22   1.0000      -7.984760      -217.2764
  23   1.0000      -7.982352      -217.2108
  24   1.0000      -7.981565      -217.1894
  25   1.0000      -7.981507      -217.1879
  26   1.0000      -7.980562      -217.1621
  27   1.0000      -7.979894      -217.1440
  28   1.0000      -7.979845      -217.1426
  29   1.0000      -4.595898      -125.0607
  30   1.0000      -3.208972       -87.3206
  31   1.0000      -3.207369       -87.2770
  32   1.0000      -3.207203       -87.2724
  33   1.0000      -1.456810       -39.6418
  34   1.0000      -1.133043       -30.8317
  35   1.0000      -1.098926       -29.9033
  36   1.0000      -1.064863       -28.9764
  37   1.0000      -1.059130       -28.8204
  38   1.0000      -1.056405       -28.7462
  39   1.0000      -1.024108       -27.8674
  40   1.0000      -1.008142       -27.4329
  41   1.0000      -0.962895       -26.2017
  42   1.0000      -0.940417       -25.5900
  43   1.0000      -0.924862       -25.1668
  44   1.0000      -0.924775       -25.1644
  45   1.0000      -0.914316       -24.8798
  46   1.0000      -0.913661       -24.8620
  47   1.0000      -0.901078       -24.5196
  48   1.0000      -0.810206       -22.0468
  49   1.0000      -0.734394       -19.9839
  50   1.0000      -0.708169       -19.2703
  51   1.0000      -0.698711       -19.0129
  52   1.0000      -0.685762       -18.6605
  53   1.0000      -0.659452       -17.9446
  54   1.0000      -0.625527       -17.0215
  55   1.0000      -0.621622       -16.9152
  56   1.0000      -0.604550       -16.4506
  57   1.0000      -0.599017       -16.3001
  58   1.0000      -0.585158       -15.9230
  59   1.0000      -0.577175       -15.7057
  60   1.0000      -0.561128       -15.2691
  61   1.0000      -0.553777       -15.0691
  62   1.0000      -0.548996       -14.9389
  63   1.0000      -0.543862       -14.7992
  64   1.0000      -0.534880       -14.5548
  65   1.0000      -0.528760       -14.3883
  66   1.0000      -0.500471       -13.6185
  67   1.0000      -0.497404       -13.5351
  68   1.0000      -0.475371       -12.9355
  69   1.0000      -0.473921       -12.8961
  70   1.0000      -0.444715       -12.1013
  71   1.0000      -0.439020       -11.9463
  72   1.0000      -0.437256       -11.8983
  73   1.0000      -0.428542       -11.6612
  74   1.0000      -0.427544       -11.6341
  75   1.0000      -0.426374       -11.6022
  76   1.0000      -0.362497        -9.8641
  77   0.0000       0.012536         0.3411
  78   0.0000       0.023274         0.6333
  79   0.0000       0.023913         0.6507
  80   0.0000       0.030494         0.8298
  81   0.0000       0.039145         1.0652

                 SPIN DOWN ORBITALS
  NO   OCC          E(Eh)            E(eV)
   0   1.0000    -261.569666     -7117.6725
   1   1.0000    -104.790566     -2851.4963
   2   1.0000    -104.787250     -2851.4060
   3   1.0000    -104.785599     -2851.3611
   4   1.0000     -32.078966      -872.9130
   5   1.0000     -27.556873      -749.8606
   6   1.0000     -27.556828      -749.8594
   7   1.0000     -27.556685      -749.8555
   8   1.0000     -20.607323      -560.7538
   9   1.0000     -11.420508      -310.7678
  10   1.0000     -11.276855      -306.8588
  11   1.0000     -11.275655      -306.8262
  12   1.0000     -11.269747      -306.6654
  13   1.0000     -11.247690      -306.0652
  14   1.0000     -11.246549      -306.0341
  15   1.0000     -11.239901      -305.8533
  16   1.0000     -11.232552      -305.6533
  17   1.0000     -10.517169      -286.1867
  18   1.0000     -10.513825      -286.0957
  19   1.0000     -10.512133      -286.0497
  20   1.0000      -7.983079      -217.2306
  21   1.0000      -7.982377      -217.2115
  22   1.0000      -7.982332      -217.2103
  23   1.0000      -7.979705      -217.1388
  24   1.0000      -7.979032      -217.1205
  25   1.0000      -7.978940      -217.1180
  26   1.0000      -7.978122      -217.0957
  27   1.0000      -7.977250      -217.0720
  28   1.0000      -7.977168      -217.0698
  29   1.0000      -4.153754      -113.0294
  30   1.0000      -2.675325       -72.7993
  31   1.0000      -2.675297       -72.7985
  32   1.0000      -2.674776       -72.7844
  33   1.0000      -1.447732       -39.3948
  34   1.0000      -1.132680       -30.8218
  35   1.0000      -1.096504       -29.8374
  36   1.0000      -1.049466       -28.5574
  37   1.0000      -1.036996       -28.2181
  38   1.0000      -1.033962       -28.1355
  39   1.0000      -1.023563       -27.8526
  40   1.0000      -1.007454       -27.4142
  41   1.0000      -0.962775       -26.1984
  42   1.0000      -0.901319       -24.5261
  43   1.0000      -0.823121       -22.3982
  44   1.0000      -0.734468       -19.9859
  45   1.0000      -0.710513       -19.3340
  46   1.0000      -0.697830       -18.9889
  47   1.0000      -0.685002       -18.6399
  48   1.0000      -0.659362       -17.9422
  49   1.0000      -0.625463       -17.0197
  50   1.0000      -0.621089       -16.9007
  51   1.0000      -0.604217       -16.4416
  52   1.0000      -0.598940       -16.2980
  53   1.0000      -0.584906       -15.9161
  54   1.0000      -0.576079       -15.6759
  55   1.0000      -0.560337       -15.2475
  56   1.0000      -0.553685       -15.0665
  57   1.0000      -0.546910       -14.8822
  58   1.0000      -0.543801       -14.7976
  59   1.0000      -0.530477       -14.4350
  60   1.0000      -0.521401       -14.1880
  61   1.0000      -0.501615       -13.6496
  62   1.0000      -0.497353       -13.5337
  63   1.0000      -0.483288       -13.1509
  64   1.0000      -0.481009       -13.0889
  65   1.0000      -0.452153       -12.3037
  66   1.0000      -0.449202       -12.2234
  67   1.0000      -0.446386       -12.1468
  68   1.0000      -0.430188       -11.7060
  69   1.0000      -0.427548       -11.6342
  70   1.0000      -0.411958       -11.2100
  71   1.0000      -0.361657        -9.8412
  72   0.0000       0.012521         0.3407
  73   0.0000       0.023249         0.6326
  74   0.0000       0.023884         0.6499
  75   0.0000       0.030420         0.8278
  76   0.0000       0.039011         1.0616

E(0)                                       ...  -3028.455605163
E(0)                                       ...  -3028.455605163
E(CORR)(strong-pairs)                      ...     -2.869797457
E(CORR)(weak-pairs)                        ...     -0.036130279
E(CORR)(corrected)                         ...     -2.905927737
E(TOT)                                     ...  -3031.361532900
E(CCSD(T))                                 ...  -3031.480063766
FINAL SINGLE POINT ENERGY     -3031.480063765704

DIPOLE MOMENT
-------------
                                X             Y             Z
Electronic contribution:    -42.84534      -4.10346       1.76429
Nuclear contribution   :     46.34784       5.31919      -2.39691
                        -----------------------------------------
Total Dipole Moment    :      3.50250       1.21573      -0.63263
                        -----------------------------------------
Magnitude (a.u.)       :      3.76108
Magnitude (Debye)      :      9.55989

Rotational constants in cm-1:     0.018959     0.010963     0.010326
Rotational constants in MHz :   568.362324   328.659485   309.565301

                             ****ORCA TERMINATED NORMALLY****
TOTAL RUN TIME: 0 days 17 hours 48 minutes 55 seconds 401 msec
