                         Program Version 4.1.2  - RELEASE  -
|  1> ! aug-cc-pVTZ aug-cc-pVTZ/C DLPNO-CCSD(T1) TightSCF NormalPNO UNO MiniPrint AutoAux
|  2> %pal nproc 10 end
|  3> %maxcore 20000
|  4> %mdci
|  5>      density none
|  6> end
|  7>
|  8> * xyz 0 6
|  9>  O      0.17641300      0.37793800     -0.87771000
| 10>  C      0.99706900      1.31014000     -0.67864400
| 11>  C      2.98718500      0.20620800      0.57864700
| 12>  C      2.71871500     -0.91576000     -0.12568900
| 13>  C      3.29979700     -1.14631600     -1.49293600
| 14> Fe     -1.49341000     -0.16995500     -0.00250300
| 15> Cl     -2.03544800     -2.02444400     -1.00344900
| 16>  C      1.81391000     -2.00908400      0.35912700
| 17> Cl     -2.76757500      1.56036500     -0.41285500
| 18> Cl     -1.08813300     -0.41205100      2.14247400
| 19>  H      3.69413900      0.90979600      0.13904500
| 20>  H      2.35072900     -2.96654000      0.37424200
| 21>  H      1.40204700     -1.82948800      1.35182800
| 22>  H      0.97571300     -2.13867400     -0.33939000
| 23>  H      3.88976000     -2.07210400     -1.49581300
| 24>  H      2.50497200     -1.28714600     -2.23806700
| 25>  H      3.95288000     -0.33078700     -1.81532200
| 26>  C      2.68641400      0.42287600      2.04049200
| 27>  H      3.45784700     -0.06220600      2.65356700
| 28>  H      2.70236200      1.48484800      2.30050900
| 29>  H      1.72039300      0.01506600      2.34663600
| 30>  C      0.79470800      2.26733100      0.45587300
| 31>  H      1.68071200      2.87152200      0.65276000
| 32>  H     -0.02013500      2.93442400      0.13663000
| 33>  H      0.46119100      1.76204500      1.36223600
| 34>  C      1.83217000      1.75345500     -1.84423800
| 35>  H      1.22930500      2.50497100     -2.37501100
| 36>  H      2.76346900      2.22951100     -1.53570700
| 37>  H      2.02183500      0.93120200     -2.53205000
| 38> *
| 39>
| 40>
| 41>                          ****END OF INPUT****

CARTESIAN COORDINATES (ANGSTROEM)
---------------------------------
  O      0.176413    0.377938   -0.877710
  C      0.997069    1.310140   -0.678644
  C      2.987185    0.206208    0.578647
  C      2.718715   -0.915760   -0.125689
  C      3.299797   -1.146316   -1.492936
  Fe    -1.493410   -0.169955   -0.002503
  Cl    -2.035448   -2.024444   -1.003449
  C      1.813910   -2.009084    0.359127
  Cl    -2.767575    1.560365   -0.412855
  Cl    -1.088133   -0.412051    2.142474
  H      3.694139    0.909796    0.139045
  H      2.350729   -2.966540    0.374242
  H      1.402047   -1.829488    1.351828
  H      0.975713   -2.138674   -0.339390
  H      3.889760   -2.072104   -1.495813
  H      2.504972   -1.287146   -2.238067
  H      3.952880   -0.330787   -1.815322
  C      2.686414    0.422876    2.040492
  H      3.457847   -0.062206    2.653567
  H      2.702362    1.484848    2.300509
  H      1.720393    0.015066    2.346636
  C      0.794708    2.267331    0.455873
  H      1.680712    2.871522    0.652760
  H     -0.020135    2.934424    0.136630
  H      0.461191    1.762045    1.362236
  C      1.832170    1.753455   -1.844238
  H      1.229305    2.504971   -2.375011
  H      2.763469    2.229511   -1.535707
  H      2.021835    0.931202   -2.532050

ORBITAL ENERGIES
----------------
                 SPIN UP ORBITALS
  NO   OCC          E(Eh)            E(eV)
   0   1.0000    -261.574446     -7117.8025
   1   1.0000    -104.793398     -2851.5733
   2   1.0000    -104.789865     -2851.4772
   3   1.0000    -104.787614     -2851.4159
   4   1.0000     -32.242178      -877.3543
   5   1.0000     -27.718641      -754.2626
   6   1.0000     -27.717535      -754.2325
   7   1.0000     -27.717324      -754.2267
   8   1.0000     -20.618872      -561.0680
   9   1.0000     -11.421302      -310.7894
  10   1.0000     -11.277151      -306.8669
  11   1.0000     -11.272201      -306.7322
  12   1.0000     -11.270866      -306.6959
  13   1.0000     -11.245754      -306.0125
  14   1.0000     -11.245564      -306.0074
  15   1.0000     -11.236111      -305.7501
  16   1.0000     -11.231193      -305.6163
  17   1.0000     -10.520122      -286.2671
  18   1.0000     -10.516550      -286.1699
  19   1.0000     -10.514252      -286.1073
  20   1.0000      -7.986955      -217.3361
  21   1.0000      -7.986198      -217.3155
  22   1.0000      -7.986151      -217.3142
  23   1.0000      -7.983418      -217.2398
  24   1.0000      -7.982651      -217.2190
  25   1.0000      -7.982599      -217.2175
  26   1.0000      -7.981045      -217.1753
  27   1.0000      -7.980384      -217.1573
  28   1.0000      -7.980329      -217.1558
  29   1.0000      -4.597087      -125.0931
  30   1.0000      -3.210239       -87.3550
  31   1.0000      -3.208515       -87.3081
  32   1.0000      -3.208328       -87.3030
  33   1.0000      -1.461833       -39.7785
  34   1.0000      -1.128492       -30.7078
  35   1.0000      -1.099665       -29.9234
  36   1.0000      -1.066295       -29.0154
  37   1.0000      -1.060374       -28.8543
  38   1.0000      -1.057144       -28.7663
  39   1.0000      -1.022418       -27.8214
  40   1.0000      -1.008926       -27.4543
  41   1.0000      -0.960342       -26.1322
  42   1.0000      -0.941948       -25.6317
  43   1.0000      -0.926043       -25.1989
  44   1.0000      -0.925890       -25.1947
  45   1.0000      -0.915330       -24.9074
  46   1.0000      -0.914634       -24.8885
  47   1.0000      -0.897219       -24.4146
  48   1.0000      -0.813183       -22.1278
  49   1.0000      -0.731654       -19.9093
  50   1.0000      -0.710954       -19.3461
  51   1.0000      -0.700910       -19.0727
  52   1.0000      -0.683363       -18.5952
  53   1.0000      -0.656409       -17.8618
  54   1.0000      -0.622575       -16.9411
  55   1.0000      -0.620908       -16.8958
  56   1.0000      -0.605398       -16.4737
  57   1.0000      -0.599480       -16.3127
  58   1.0000      -0.585633       -15.9359
  59   1.0000      -0.577981       -15.7277
  60   1.0000      -0.560961       -15.2645
  61   1.0000      -0.553259       -15.0549
  62   1.0000      -0.545984       -14.8570
  63   1.0000      -0.541940       -14.7469
  64   1.0000      -0.536720       -14.6049
  65   1.0000      -0.526507       -14.3270
  66   1.0000      -0.502803       -13.6820
  67   1.0000      -0.494450       -13.4547
  68   1.0000      -0.476484       -12.9658
  69   1.0000      -0.475412       -12.9366
  70   1.0000      -0.446096       -12.1389
  71   1.0000      -0.439952       -11.9717
  72   1.0000      -0.437984       -11.9181
  73   1.0000      -0.429531       -11.6881
  74   1.0000      -0.428434       -11.6583
  75   1.0000      -0.427039       -11.6203
  76   1.0000      -0.360829        -9.8187
  77   0.0000       0.012482         0.3397
  78   0.0000       0.023380         0.6362
  79   0.0000       0.024096         0.6557
  80   0.0000       0.030510         0.8302
  81   0.0000       0.039160         1.0656

                 SPIN DOWN ORBITALS
  NO   OCC          E(Eh)            E(eV)
   0   1.0000    -261.570865     -7117.7051
   1   1.0000    -104.791915     -2851.5330
   2   1.0000    -104.788310     -2851.4349
   3   1.0000    -104.786053     -2851.3735
   4   1.0000     -32.080177      -872.9460
   5   1.0000     -27.558098      -749.8940
   6   1.0000     -27.558021      -749.8919
   7   1.0000     -27.557911      -749.8889
   8   1.0000     -20.615302      -560.9709
   9   1.0000     -11.421224      -310.7873
  10   1.0000     -11.277042      -306.8639
  11   1.0000     -11.272189      -306.7319
  12   1.0000     -11.270867      -306.6959
  13   1.0000     -11.245727      -306.0118
  14   1.0000     -11.245564      -306.0074
  15   1.0000     -11.236111      -305.7501
  16   1.0000     -11.231206      -305.6166
  17   1.0000     -10.518537      -286.2239
  18   1.0000     -10.514891      -286.1247
  19   1.0000     -10.512594      -286.0622
  20   1.0000      -7.984454      -217.2680
  21   1.0000      -7.983725      -217.2482
  22   1.0000      -7.983686      -217.2471
  23   1.0000      -7.980784      -217.1682
  24   1.0000      -7.980077      -217.1489
  25   1.0000      -7.979989      -217.1465
  26   1.0000      -7.978581      -217.1082
  27   1.0000      -7.977698      -217.0842
  28   1.0000      -7.977613      -217.0819
  29   1.0000      -4.154987      -113.0630
  30   1.0000      -2.676555       -72.8328
  31   1.0000      -2.676512       -72.8316
  32   1.0000      -2.676058       -72.8192
  33   1.0000      -1.453075       -39.5402
  34   1.0000      -1.128179       -30.6993
  35   1.0000      -1.097239       -29.8574
  36   1.0000      -1.050625       -28.5890
  37   1.0000      -1.038077       -28.2475
  38   1.0000      -1.034494       -28.1500
  39   1.0000      -1.021694       -27.8017
  40   1.0000      -1.008449       -27.4413
  41   1.0000      -0.960265       -26.1301
  42   1.0000      -0.897348       -24.4181
  43   1.0000      -0.826622       -22.4935
  44   1.0000      -0.731730       -19.9114
  45   1.0000      -0.712985       -19.4013
  46   1.0000      -0.700038       -19.0490
  47   1.0000      -0.682746       -18.5785
  48   1.0000      -0.656346       -17.8601
  49   1.0000      -0.622549       -16.9404
  50   1.0000      -0.620371       -16.8811
  51   1.0000      -0.605141       -16.4667
  52   1.0000      -0.599350       -16.3091
  53   1.0000      -0.585299       -15.9268
  54   1.0000      -0.576403       -15.6847
  55   1.0000      -0.560340       -15.2476
  56   1.0000      -0.552999       -15.0479
  57   1.0000      -0.544787       -14.8244
  58   1.0000      -0.541710       -14.7407
  59   1.0000      -0.527753       -14.3609
  60   1.0000      -0.523374       -14.2417
  61   1.0000      -0.504652       -13.7323
  62   1.0000      -0.494438       -13.4543
  63   1.0000      -0.484603       -13.1867
  64   1.0000      -0.481707       -13.1079
  65   1.0000      -0.453670       -12.3450
  66   1.0000      -0.450053       -12.2466
  67   1.0000      -0.447199       -12.1689
  68   1.0000      -0.431037       -11.7291
  69   1.0000      -0.428169       -11.6511
  70   1.0000      -0.412699       -11.2301
  71   1.0000      -0.360234        -9.8025
  72   0.0000       0.012465         0.3392
  73   0.0000       0.023356         0.6356
  74   0.0000       0.024056         0.6546
  75   0.0000       0.030423         0.8278
  76   0.0000       0.039038         1.0623

E(0)                                       ...  -3028.463851855
E(0)                                       ...  -3028.463851855
E(CORR)(strong-pairs)                      ...     -2.867277503
E(CORR)(weak-pairs)                        ...     -0.035713772
E(CORR)(corrected)                         ...     -2.902991276
E(TOT)                                     ...  -3031.366843130
E(CCSD(T))                                 ...  -3031.484900249
FINAL SINGLE POINT ENERGY     -3031.484900248726

DIPOLE MOMENT
-------------
                                X             Y             Z
Electronic contribution:    -43.75311      -5.19006       1.35864
Nuclear contribution   :     47.14745       6.61568      -1.98205
                        -----------------------------------------
Total Dipole Moment    :      3.39434       1.42562      -0.62342
                        -----------------------------------------
Magnitude (a.u.)       :      3.73398
Magnitude (Debye)      :      9.49101

Rotational constants in cm-1:     0.018905     0.010641     0.010007
Rotational constants in MHz :   566.752036   318.995317   299.996526

                             ****ORCA TERMINATED NORMALLY****
TOTAL RUN TIME: 0 days 15 hours 1 minutes 52 seconds 221 msec
