                         Program Version 4.1.2  - RELEASE  -
|  1> ! aug-cc-pVTZ aug-cc-pVTZ/C DLPNO-CCSD(T1) TightSCF NormalPNO UNO MiniPrint AutoAux
|  2> %pal nproc 10 end
|  3> %maxcore 20000
|  4> %mdci
|  5>      density none
|  6> end
|  7>
|  8> * xyz 0 6
|  9>  O      0.44340600      0.14541500     -0.45668700
| 10>  C      1.35997000      1.24943200     -0.36066900
| 11>  C      2.89812000      0.06383100     -0.18476100
| 12>  C      1.94644900     -1.08753500     -0.30427800
| 13>  C      1.83348000     -1.77608000     -1.62160400
| 14> Fe     -1.37334200     -0.05847100      0.05464000
| 15> Cl     -1.87013100     -2.00272400     -0.86042300
| 16>  C      1.56054400     -1.87617700      0.90014700
| 17> Cl     -2.39548000      1.71486800     -0.73428000
| 18> Cl     -1.38241200     -0.15748800      2.26060400
| 19>  H      3.48679700      0.19803500     -1.09313500
| 20>  H      2.41123000     -2.53222100      1.14045100
| 21>  H      1.36388000     -1.24725600      1.76864100
| 22>  H      0.68838300     -2.50249400      0.70195600
| 23>  H      2.62699900     -2.53908100     -1.65434100
| 24>  H      0.86788000     -2.27596800     -1.72648800
| 25>  H      1.99233800     -1.08852700     -2.45441600
| 26>  C      3.70025800      0.24794800      1.08262200
| 27>  H      4.45943700     -0.53720900      1.19689100
| 28>  H      4.22657500      1.20696900      1.05142400
| 29>  H      3.07652900      0.24013500      1.98003500
| 30>  C      1.16783700      2.07957600      0.87633900
| 31>  H      1.97677000      2.80852700      0.98484500
| 32>  H      0.22216100      2.63141000      0.78661700
| 33>  H      1.10420800      1.46402300      1.77531500
| 34>  C      1.43052100      2.01177500     -1.65515000
| 35>  H      0.45693700      2.48877100     -1.82988400
| 36>  H      2.19989200      2.78914400     -1.61263000
| 37>  H      1.63294300      1.34689800     -2.49860500
| 38> *
| 39>
| 40>
| 41>                          ****END OF INPUT****

CARTESIAN COORDINATES (ANGSTROEM)
---------------------------------
  O      0.443406    0.145415   -0.456687
  C      1.359970    1.249432   -0.360669
  C      2.898120    0.063831   -0.184761
  C      1.946449   -1.087535   -0.304278
  C      1.833480   -1.776080   -1.621604
  Fe    -1.373342   -0.058471    0.054640
  Cl    -1.870131   -2.002724   -0.860423
  C      1.560544   -1.876177    0.900147
  Cl    -2.395480    1.714868   -0.734280
  Cl    -1.382412   -0.157488    2.260604
  H      3.486797    0.198035   -1.093135
  H      2.411230   -2.532221    1.140451
  H      1.363880   -1.247256    1.768641
  H      0.688383   -2.502494    0.701956
  H      2.626999   -2.539081   -1.654341
  H      0.867880   -2.275968   -1.726488
  H      1.992338   -1.088527   -2.454416
  C      3.700258    0.247948    1.082622
  H      4.459437   -0.537209    1.196891
  H      4.226575    1.206969    1.051424
  H      3.076529    0.240135    1.980035
  C      1.167837    2.079576    0.876339
  H      1.976770    2.808527    0.984845
  H      0.222161    2.631410    0.786617
  H      1.104208    1.464023    1.775315
  C      1.430521    2.011775   -1.655150
  H      0.456937    2.488771   -1.829884
  H      2.199892    2.789144   -1.612630
  H      1.632943    1.346898   -2.498605

ORBITAL ENERGIES
----------------
                 SPIN UP ORBITALS
  NO   OCC          E(Eh)            E(eV)
   0   1.0000    -261.555975     -7117.2999
   1   1.0000    -104.781778     -2851.2571
   2   1.0000    -104.779427     -2851.1932
   3   1.0000    -104.779106     -2851.1844
   4   1.0000     -32.223869      -876.8561
   5   1.0000     -27.699897      -753.7525
   6   1.0000     -27.699476      -753.7410
   7   1.0000     -27.699272      -753.7355
   8   1.0000     -20.574245      -559.8537
   9   1.0000     -11.391809      -309.9869
  10   1.0000     -11.361368      -309.1585
  11   1.0000     -11.285867      -307.1040
  12   1.0000     -11.269819      -306.6674
  13   1.0000     -11.267858      -306.6140
  14   1.0000     -11.256920      -306.3164
  15   1.0000     -11.243941      -305.9632
  16   1.0000     -11.241910      -305.9079
  17   1.0000     -10.508378      -285.9475
  18   1.0000     -10.506053      -285.8842
  19   1.0000     -10.505748      -285.8759
  20   1.0000      -7.975188      -217.0159
  21   1.0000      -7.974468      -216.9963
  22   1.0000      -7.974409      -216.9947
  23   1.0000      -7.972854      -216.9524
  24   1.0000      -7.972629      -216.9463
  25   1.0000      -7.972160      -216.9335
  26   1.0000      -7.972104      -216.9320
  27   1.0000      -7.971808      -216.9239
  28   1.0000      -7.971761      -216.9226
  29   1.0000      -4.579175      -124.6057
  30   1.0000      -3.191697       -86.8505
  31   1.0000      -3.191232       -86.8378
  32   1.0000      -3.190669       -86.8225
  33   1.0000      -1.371993       -37.3338
  34   1.0000      -1.156421       -31.4678
  35   1.0000      -1.081680       -29.4340
  36   1.0000      -1.053640       -28.6710
  37   1.0000      -1.047455       -28.5027
  38   1.0000      -1.046630       -28.4803
  39   1.0000      -1.037662       -28.2362
  40   1.0000      -1.002302       -27.2740
  41   1.0000      -0.972627       -26.4665
  42   1.0000      -0.925859       -25.1939
  43   1.0000      -0.908618       -24.7247
  44   1.0000      -0.908567       -24.7234
  45   1.0000      -0.903806       -24.5938
  46   1.0000      -0.899777       -24.4842
  47   1.0000      -0.899067       -24.4649
  48   1.0000      -0.788745       -21.4628
  49   1.0000      -0.757458       -20.6115
  50   1.0000      -0.689621       -18.7655
  51   1.0000      -0.683512       -18.5993
  52   1.0000      -0.666701       -18.1419
  53   1.0000      -0.642828       -17.4922
  54   1.0000      -0.627739       -17.0817
  55   1.0000      -0.621629       -16.9154
  56   1.0000      -0.595616       -16.2075
  57   1.0000      -0.592830       -16.1317
  58   1.0000      -0.585705       -15.9378
  59   1.0000      -0.580828       -15.8051
  60   1.0000      -0.568712       -15.4755
  61   1.0000      -0.561480       -15.2786
  62   1.0000      -0.545569       -14.8457
  63   1.0000      -0.538643       -14.6572
  64   1.0000      -0.533455       -14.5161
  65   1.0000      -0.527310       -14.3488
  66   1.0000      -0.509543       -13.8654
  67   1.0000      -0.487586       -13.2679
  68   1.0000      -0.467860       -12.7311
  69   1.0000      -0.458055       -12.4643
  70   1.0000      -0.436995       -11.8912
  71   1.0000      -0.430739       -11.7210
  72   1.0000      -0.427636       -11.6366
  73   1.0000      -0.421583       -11.4719
  74   1.0000      -0.418798       -11.3961
  75   1.0000      -0.417896       -11.3715
  76   1.0000      -0.381951       -10.3934
  77   0.0000       0.010358         0.2818
  78   0.0000       0.021458         0.5839
  79   0.0000       0.023718         0.6454
  80   0.0000       0.031330         0.8525
  81   0.0000       0.038144         1.0380

                 SPIN DOWN ORBITALS
  NO   OCC          E(Eh)            E(eV)
   0   1.0000    -261.552420     -7117.2032
   1   1.0000    -104.780400     -2851.2196
   2   1.0000    -104.777962     -2851.1533
   3   1.0000    -104.777684     -2851.1457
   4   1.0000     -32.061935      -872.4496
   5   1.0000     -27.539921      -749.3994
   6   1.0000     -27.539793      -749.3959
   7   1.0000     -27.539447      -749.3864
   8   1.0000     -20.569229      -559.7172
   9   1.0000     -11.391862      -309.9883
  10   1.0000     -11.361508      -309.1623
  11   1.0000     -11.285417      -307.0918
  12   1.0000     -11.269799      -306.6668
  13   1.0000     -11.267868      -306.6143
  14   1.0000     -11.256950      -306.3172
  15   1.0000     -11.243891      -305.9618
  16   1.0000     -11.241886      -305.9073
  17   1.0000     -10.506902      -285.9073
  18   1.0000     -10.504488      -285.8416
  19   1.0000     -10.504221      -285.8344
  20   1.0000      -7.972870      -216.9528
  21   1.0000      -7.972177      -216.9340
  22   1.0000      -7.972115      -216.9323
  23   1.0000      -7.970458      -216.8872
  24   1.0000      -7.970119      -216.8780
  25   1.0000      -7.969681      -216.8661
  26   1.0000      -7.969631      -216.8647
  27   1.0000      -7.969515      -216.8615
  28   1.0000      -7.969443      -216.8596
  29   1.0000      -4.137155      -112.5777
  30   1.0000      -2.659065       -72.3568
  31   1.0000      -2.658807       -72.3498
  32   1.0000      -2.658055       -72.3294
  33   1.0000      -1.358839       -36.9759
  34   1.0000      -1.155025       -31.4298
  35   1.0000      -1.079039       -29.3621
  36   1.0000      -1.038849       -28.2685
  37   1.0000      -1.036681       -28.2095
  38   1.0000      -1.027339       -27.9553
  39   1.0000      -1.025675       -27.9100
  40   1.0000      -1.002043       -27.2670
  41   1.0000      -0.972174       -26.4542
  42   1.0000      -0.914016       -24.8716
  43   1.0000      -0.792721       -21.5710
  44   1.0000      -0.760586       -20.6966
  45   1.0000      -0.689803       -18.7705
  46   1.0000      -0.683434       -18.5972
  47   1.0000      -0.666955       -18.1488
  48   1.0000      -0.643407       -17.5080
  49   1.0000      -0.626188       -17.0394
  50   1.0000      -0.621992       -16.9253
  51   1.0000      -0.594476       -16.1765
  52   1.0000      -0.592848       -16.1322
  53   1.0000      -0.585709       -15.9380
  54   1.0000      -0.578797       -15.7499
  55   1.0000      -0.568577       -15.4718
  56   1.0000      -0.561480       -15.2786
  57   1.0000      -0.543169       -14.7804
  58   1.0000      -0.538266       -14.6470
  59   1.0000      -0.532460       -14.4890
  60   1.0000      -0.522050       -14.2057
  61   1.0000      -0.507855       -13.8194
  62   1.0000      -0.483317       -13.1517
  63   1.0000      -0.472541       -12.8585
  64   1.0000      -0.468523       -12.7492
  65   1.0000      -0.442327       -12.0363
  66   1.0000      -0.440211       -11.9787
  67   1.0000      -0.437613       -11.9080
  68   1.0000      -0.425224       -11.5709
  69   1.0000      -0.416898       -11.3444
  70   1.0000      -0.404795       -11.0150
  71   1.0000      -0.382884       -10.4188
  72   0.0000       0.010342         0.2814
  73   0.0000       0.021371         0.5815
  74   0.0000       0.023697         0.6448
  75   0.0000       0.031383         0.8540
  76   0.0000       0.038141         1.0379

E(0)                                       ...  -3028.413718561
E(0)                                       ...  -3028.413718561
E(CORR)(strong-pairs)                      ...     -2.877439433
E(CORR)(weak-pairs)                        ...     -0.036204533
E(CORR)(corrected)                         ...     -2.913643967
E(TOT)                                     ...  -3031.327362528
E(CCSD(T))                                 ...  -3031.447706423
FINAL SINGLE POINT ENERGY     -3031.447706423278

DIPOLE MOMENT
-------------
                                X             Y             Z
Electronic contribution:    -40.24420      -3.41317       2.08225
Nuclear contribution   :     44.45220       3.19342      -2.55553
                        -----------------------------------------
Total Dipole Moment    :      4.20799      -0.21975      -0.47327
                        -----------------------------------------
Magnitude (a.u.)       :      4.24022
Magnitude (Debye)      :     10.77779

Rotational constants in cm-1:     0.018802     0.011998     0.010825
Rotational constants in MHz :   563.657012   359.686997   324.529594

                             ****ORCA TERMINATED NORMALLY****
TOTAL RUN TIME: 0 days 22 hours 8 minutes 12 seconds 483 msec
