                         Program Version 4.1.2  - RELEASE  -
|  1> ! aug-cc-pVTZ aug-cc-pVTZ/C DLPNO-CCSD(T1) TightSCF NormalPNO UNO MiniPrint AutoAux
|  2> %pal nproc 10 end
|  3> %maxcore 20000
|  4> %mdci
|  5>      density none
|  6> end
|  7>
|  8> * xyz 0 6
|  9>  O     -0.33653200     -0.18531200     -0.57195000
| 10>  C     -1.33598600     -1.10324500     -0.46272400
| 11>  C     -2.90683800     -0.09683600     -0.10277300
| 12>  C     -2.15103100      1.09958000     -0.22673300
| 13>  C     -1.99467400      1.77949400     -1.53444900
| 14> Fe      1.40331700      0.04493600      0.03563700
| 15> Cl      1.85296600      2.06384800     -0.76610300
| 16>  C     -1.58230800      1.78787300      0.95646600
| 17> Cl      2.58354100     -1.64193400     -0.73814200
| 18> Cl      1.31259900      0.05878200      2.25837400
| 19>  H     -3.52123900     -0.31083800     -0.97631600
| 20>  H     -2.39532200      2.39543900      1.38727400
| 21>  H     -1.25085700      1.09522800      1.73192800
| 22>  H     -0.75726200      2.44889400      0.68536400
| 23>  H     -2.59224600      2.70397000     -1.48388000
| 24>  H     -0.95180900      2.07420600     -1.68798100
| 25>  H     -2.35676900      1.18320200     -2.37296900
| 26>  C     -3.58127600     -0.45821500      1.20693400
| 27>  H     -4.44713700      0.19286100      1.37873200
| 28>  H     -3.94844700     -1.48722000      1.17504200
| 29>  H     -2.91713000     -0.36538800      2.06844400
| 30>  C     -1.16573800     -2.06844900      0.68890400
| 31>  H     -2.00726000     -2.75791400      0.78671600
| 32>  H     -0.26391800     -2.65371500      0.46335300
| 33>  H     -0.98381800     -1.55301500      1.63286100
| 34>  C     -1.63336100     -1.77206200     -1.79059300
| 35>  H     -0.74076400     -2.35051600     -2.06020000
| 36>  H     -2.49188100     -2.44722600     -1.72978000
| 37>  H     -1.79566600     -1.03448400     -2.57990700
| 38> *
| 39>
| 40>
| 41>                          ****END OF INPUT****

CARTESIAN COORDINATES (ANGSTROEM)
---------------------------------
  O     -0.336532   -0.185312   -0.571950
  C     -1.335986   -1.103245   -0.462724
  C     -2.906838   -0.096836   -0.102773
  C     -2.151031    1.099580   -0.226733
  C     -1.994674    1.779494   -1.534449
  Fe     1.403317    0.044936    0.035637
  Cl     1.852966    2.063848   -0.766103
  C     -1.582308    1.787873    0.956466
  Cl     2.583541   -1.641934   -0.738142
  Cl     1.312599    0.058782    2.258374
  H     -3.521239   -0.310838   -0.976316
  H     -2.395322    2.395439    1.387274
  H     -1.250857    1.095228    1.731928
  H     -0.757262    2.448894    0.685364
  H     -2.592246    2.703970   -1.483880
  H     -0.951809    2.074206   -1.687981
  H     -2.356769    1.183202   -2.372969
  C     -3.581276   -0.458215    1.206934
  H     -4.447137    0.192861    1.378732
  H     -3.948447   -1.487220    1.175042
  H     -2.917130   -0.365388    2.068444
  C     -1.165738   -2.068449    0.688904
  H     -2.007260   -2.757914    0.786716
  H     -0.263918   -2.653715    0.463353
  H     -0.983818   -1.553015    1.632861
  C     -1.633361   -1.772062   -1.790593
  H     -0.740764   -2.350516   -2.060200
  H     -2.491881   -2.447226   -1.729780
  H     -1.795666   -1.034484   -2.579907

ORBITAL ENERGIES
----------------
                 SPIN UP ORBITALS
  NO   OCC          E(Eh)            E(eV)
   0   1.0000    -261.548305     -7117.0912
   1   1.0000    -104.775117     -2851.0759
   2   1.0000    -104.774801     -2851.0673
   3   1.0000    -104.772187     -2850.9962
   4   1.0000     -32.216195      -876.6472
   5   1.0000     -27.692051      -753.5390
   6   1.0000     -27.691982      -753.5371
   7   1.0000     -27.691656      -753.5283
   8   1.0000     -20.548319      -559.1482
   9   1.0000     -11.385103      -309.8044
  10   1.0000     -11.373751      -309.4955
  11   1.0000     -11.283072      -307.0280
  12   1.0000     -11.276242      -306.8421
  13   1.0000     -11.271455      -306.7119
  14   1.0000     -11.262963      -306.4808
  15   1.0000     -11.249412      -306.1121
  16   1.0000     -11.244231      -305.9711
  17   1.0000     -10.501603      -285.7631
  18   1.0000     -10.501391      -285.7574
  19   1.0000     -10.498716      -285.6846
  20   1.0000      -7.968433      -216.8321
  21   1.0000      -7.968288      -216.8281
  22   1.0000      -7.967687      -216.8118
  23   1.0000      -7.967594      -216.8093
  24   1.0000      -7.967427      -216.8047
  25   1.0000      -7.967381      -216.8035
  26   1.0000      -7.965531      -216.7531
  27   1.0000      -7.964830      -216.7340
  28   1.0000      -7.964740      -216.7316
  29   1.0000      -4.571693      -124.4021
  30   1.0000      -3.184287       -86.6489
  31   1.0000      -3.183852       -86.6370
  32   1.0000      -3.183262       -86.6210
  33   1.0000      -1.381295       -37.5870
  34   1.0000      -1.180632       -32.1266
  35   1.0000      -1.086147       -29.5556
  36   1.0000      -1.046485       -28.4763
  37   1.0000      -1.041563       -28.3424
  38   1.0000      -1.040956       -28.3259
  39   1.0000      -1.038851       -28.2686
  40   1.0000      -1.008849       -27.4522
  41   1.0000      -0.977947       -26.6113
  42   1.0000      -0.934650       -25.4331
  43   1.0000      -0.911755       -24.8101
  44   1.0000      -0.901322       -24.5262
  45   1.0000      -0.901304       -24.5257
  46   1.0000      -0.892832       -24.2952
  47   1.0000      -0.892532       -24.2870
  48   1.0000      -0.785738       -21.3810
  49   1.0000      -0.764931       -20.8148
  50   1.0000      -0.699987       -19.0476
  51   1.0000      -0.693114       -18.8606
  52   1.0000      -0.674112       -18.3435
  53   1.0000      -0.647317       -17.6144
  54   1.0000      -0.640944       -17.4410
  55   1.0000      -0.627690       -17.0803
  56   1.0000      -0.600775       -16.3479
  57   1.0000      -0.595006       -16.1909
  58   1.0000      -0.591745       -16.1022
  59   1.0000      -0.584424       -15.9030
  60   1.0000      -0.575972       -15.6730
  61   1.0000      -0.561615       -15.2823
  62   1.0000      -0.557238       -15.1632
  63   1.0000      -0.544759       -14.8236
  64   1.0000      -0.535869       -14.5817
  65   1.0000      -0.531654       -14.4670
  66   1.0000      -0.508152       -13.8275
  67   1.0000      -0.475696       -12.9443
  68   1.0000      -0.461993       -12.5715
  69   1.0000      -0.449518       -12.2320
  70   1.0000      -0.428251       -11.6533
  71   1.0000      -0.425432       -11.5766
  72   1.0000      -0.422194       -11.4885
  73   1.0000      -0.415300       -11.3009
  74   1.0000      -0.413450       -11.2506
  75   1.0000      -0.411600       -11.2002
  76   1.0000      -0.394159       -10.7256
  77   0.0000       0.007683         0.2091
  78   0.0000       0.019020         0.5176
  79   0.0000       0.021510         0.5853
  80   0.0000       0.029838         0.8119
  81   0.0000       0.030690         0.8351

                 SPIN DOWN ORBITALS
  NO   OCC          E(Eh)            E(eV)
   0   1.0000    -261.544761     -7116.9948
   1   1.0000    -104.773812     -2851.0404
   2   1.0000    -104.773446     -2851.0304
   3   1.0000    -104.770758     -2850.9573
   4   1.0000     -32.054155      -872.2379
   5   1.0000     -27.532246      -749.1905
   6   1.0000     -27.532062      -749.1855
   7   1.0000     -27.531561      -749.1719
   8   1.0000     -20.542540      -558.9909
   9   1.0000     -11.385110      -309.8046
  10   1.0000     -11.373667      -309.4932
  11   1.0000     -11.282772      -307.0198
  12   1.0000     -11.276228      -306.8418
  13   1.0000     -11.271474      -306.7124
  14   1.0000     -11.262990      -306.4816
  15   1.0000     -11.249317      -306.1095
  16   1.0000     -11.244191      -305.9700
  17   1.0000     -10.500203      -285.7250
  18   1.0000     -10.499933      -285.7177
  19   1.0000     -10.497187      -285.6430
  20   1.0000      -7.966155      -216.7701
  21   1.0000      -7.965802      -216.7605
  22   1.0000      -7.965565      -216.7540
  23   1.0000      -7.965471      -216.7515
  24   1.0000      -7.965301      -216.7469
  25   1.0000      -7.965229      -216.7449
  26   1.0000      -7.963151      -216.6883
  27   1.0000      -7.962428      -216.6687
  28   1.0000      -7.962355      -216.6667
  29   1.0000      -4.129468      -112.3685
  30   1.0000      -2.651274       -72.1448
  31   1.0000      -2.651197       -72.1427
  32   1.0000      -2.650594       -72.1263
  33   1.0000      -1.366322       -37.1795
  34   1.0000      -1.179403       -32.0932
  35   1.0000      -1.083445       -29.4820
  36   1.0000      -1.040351       -28.3094
  37   1.0000      -1.032176       -28.0869
  38   1.0000      -1.021502       -27.7965
  39   1.0000      -1.018844       -27.7241
  40   1.0000      -1.008400       -27.4400
  41   1.0000      -0.977278       -26.5931
  42   1.0000      -0.932150       -25.3651
  43   1.0000      -0.794893       -21.6301
  44   1.0000      -0.768581       -20.9141
  45   1.0000      -0.700175       -19.0527
  46   1.0000      -0.692184       -18.8353
  47   1.0000      -0.675837       -18.3905
  48   1.0000      -0.649077       -17.6623
  49   1.0000      -0.638828       -17.3834
  50   1.0000      -0.627722       -17.0812
  51   1.0000      -0.599882       -16.3236
  52   1.0000      -0.595061       -16.1924
  53   1.0000      -0.591695       -16.1008
  54   1.0000      -0.583209       -15.8699
  55   1.0000      -0.575910       -15.6713
  56   1.0000      -0.561671       -15.2839
  57   1.0000      -0.556358       -15.1393
  58   1.0000      -0.543888       -14.8000
  59   1.0000      -0.534168       -14.5354
  60   1.0000      -0.526788       -14.3346
  61   1.0000      -0.502126       -13.6636
  62   1.0000      -0.472536       -12.8584
  63   1.0000      -0.465275       -12.6608
  64   1.0000      -0.459540       -12.5047
  65   1.0000      -0.436513       -11.8781
  66   1.0000      -0.433015       -11.7829
  67   1.0000      -0.432169       -11.7599
  68   1.0000      -0.423438       -11.5223
  69   1.0000      -0.411325       -11.1927
  70   1.0000      -0.399417       -10.8687
  71   1.0000      -0.389399       -10.5961
  72   0.0000       0.007681         0.2090
  73   0.0000       0.018927         0.5150
  74   0.0000       0.021492         0.5848
  75   0.0000       0.029636         0.8064
  76   0.0000       0.030576         0.8320

E(0)                                       ...  -3028.423327135
E(0)                                       ...  -3028.423327135
E(CORR)(strong-pairs)                      ...     -2.870639479
E(CORR)(weak-pairs)                        ...     -0.035773543
E(CORR)(corrected)                         ...     -2.906413022
E(TOT)                                     ...  -3031.329740157
E(CCSD(T))                                 ...  -3031.448512264
FINAL SINGLE POINT ENERGY     -3031.448512264124

DIPOLE MOMENT
-------------
                                X             Y             Z
Electronic contribution:     40.56213       3.81583       2.23926
Nuclear contribution   :    -45.30606      -3.59308      -2.70327
                        -----------------------------------------
Total Dipole Moment    :     -4.74393       0.22275      -0.46401
                        -----------------------------------------
Magnitude (a.u.)       :      4.77177
Magnitude (Debye)      :     12.12888

Rotational constants in cm-1:     0.019245     0.011638     0.010678
Rotational constants in MHz :   576.941121   348.902192   320.103715

                             ****ORCA TERMINATED NORMALLY****
TOTAL RUN TIME: 0 days 21 hours 10 minutes 47 seconds 331 msec
