                         Program Version 4.1.2  - RELEASE  -
|  1> ! aug-cc-pVTZ aug-cc-pVTZ/C DLPNO-CCSD(T1) TightSCF NormalPNO UNO MiniPrint AutoAux
|  2> %pal nproc 10 end
|  3> %maxcore 20000
|  4> %mdci
|  5>      density none
|  6> end
|  7>
|  8> * xyz 0 6
|  9>  O     -0.32241900     -0.14363400     -0.70659700
| 10>  C     -1.22951700     -1.06713400     -0.59586500
| 11>  C     -2.91343000     -0.18458800      0.29606900
| 12>  C     -2.40678200      1.01459100     -0.14403100
| 13>  C     -2.67918100      1.54127000     -1.51400000
| 14> Fe      1.42013200      0.09593600      0.01654200
| 15> Cl      2.02574600      2.06273700     -0.74242900
| 16>  C     -1.56236300      1.89749500      0.70915100
| 17> Cl      2.56497200     -1.62317000     -0.73041000
| 18> Cl      1.21724000      0.05429700      2.22399700
| 19>  H     -3.65747300     -0.65694900     -0.34188300
| 20>  H     -2.21527000      2.68493000      1.11581100
| 21>  H     -1.09662300      1.38424900      1.54911900
| 22>  H     -0.78666100      2.39344000      0.11814100
| 23>  H     -3.02507600      2.57936600     -1.43334500
| 24>  H     -1.74078500      1.57107100     -2.08250900
| 25>  H     -3.42943000      0.96536900     -2.05890000
| 26>  C     -3.00406800     -0.55181400      1.76068800
| 27>  H     -3.83439900     -0.00213100      2.22180500
| 28>  H     -3.20996000     -1.61650900      1.89163100
| 29>  H     -2.09769900     -0.30988900      2.31996000
| 30>  C     -0.98085400     -2.17294800      0.40384500
| 31>  H     -1.83474100     -2.84453200      0.50689800
| 32>  H     -0.13690900     -2.74512800     -0.00695500
| 33>  H     -0.67008800     -1.79230500      1.37614500
| 34>  C     -1.81897800     -1.53458400     -1.91171500
| 35>  H     -1.02803200     -2.12553800     -2.39196100
| 36>  H     -2.69369300     -2.17433600     -1.77708800
| 37>  H     -2.05146000     -0.70578700     -2.57873100
| 38> *
| 39>
| 40>
| 41>                          ****END OF INPUT****

CARTESIAN COORDINATES (ANGSTROEM)
---------------------------------
  O     -0.322419   -0.143634   -0.706597
  C     -1.229517   -1.067134   -0.595865
  C     -2.913430   -0.184588    0.296069
  C     -2.406782    1.014591   -0.144031
  C     -2.679181    1.541270   -1.514000
  Fe     1.420132    0.095936    0.016542
  Cl     2.025746    2.062737   -0.742429
  C     -1.562363    1.897495    0.709151
  Cl     2.564972   -1.623170   -0.730410
  Cl     1.217240    0.054297    2.223997
  H     -3.657473   -0.656949   -0.341883
  H     -2.215270    2.684930    1.115811
  H     -1.096623    1.384249    1.549119
  H     -0.786661    2.393440    0.118141
  H     -3.025076    2.579366   -1.433345
  H     -1.740785    1.571071   -2.082509
  H     -3.429430    0.965369   -2.058900
  C     -3.004068   -0.551814    1.760688
  H     -3.834399   -0.002131    2.221805
  H     -3.209960   -1.616509    1.891631
  H     -2.097699   -0.309889    2.319960
  C     -0.980854   -2.172948    0.403845
  H     -1.834741   -2.844532    0.506898
  H     -0.136909   -2.745128   -0.006955
  H     -0.670088   -1.792305    1.376145
  C     -1.818978   -1.534584   -1.911715
  H     -1.028032   -2.125538   -2.391961
  H     -2.693693   -2.174336   -1.777088
  H     -2.051460   -0.705787   -2.578731

ORBITAL ENERGIES
----------------
                 SPIN UP ORBITALS
  NO   OCC          E(Eh)            E(eV)
   0   1.0000    -261.558929     -7117.3803
   1   1.0000    -104.782477     -2851.2762
   2   1.0000    -104.778836     -2851.1771
   3   1.0000    -104.778636     -2851.1716
   4   1.0000     -32.226786      -876.9354
   5   1.0000     -27.702886      -753.8338
   6   1.0000     -27.702357      -753.8195
   7   1.0000     -27.702167      -753.8143
   8   1.0000     -20.570959      -559.7643
   9   1.0000     -11.403018      -310.2919
  10   1.0000     -11.331649      -308.3499
  11   1.0000     -11.269092      -306.6476
  12   1.0000     -11.265779      -306.5574
  13   1.0000     -11.263251      -306.4886
  14   1.0000     -11.256153      -306.2955
  15   1.0000     -11.252408      -306.1936
  16   1.0000     -11.251415      -306.1666
  17   1.0000     -10.509116      -285.9676
  18   1.0000     -10.505421      -285.8670
  19   1.0000     -10.505256      -285.8625
  20   1.0000      -7.975992      -217.0378
  21   1.0000      -7.975151      -217.0149
  22   1.0000      -7.975116      -217.0139
  23   1.0000      -7.972228      -216.9353
  24   1.0000      -7.972112      -216.9322
  25   1.0000      -7.971530      -216.9164
  26   1.0000      -7.971459      -216.9144
  27   1.0000      -7.971352      -216.9115
  28   1.0000      -7.971279      -216.9095
  29   1.0000      -4.582013      -124.6829
  30   1.0000      -3.194762       -86.9339
  31   1.0000      -3.193873       -86.9097
  32   1.0000      -3.193500       -86.8996
  33   1.0000      -1.418108       -38.5887
  34   1.0000      -1.163597       -31.6631
  35   1.0000      -1.087688       -29.5975
  36   1.0000      -1.053879       -28.6775
  37   1.0000      -1.048316       -28.5261
  38   1.0000      -1.045951       -28.4618
  39   1.0000      -1.038429       -28.2571
  40   1.0000      -0.995445       -27.0874
  41   1.0000      -0.983757       -26.7694
  42   1.0000      -0.929323       -25.2882
  43   1.0000      -0.919359       -25.0170
  44   1.0000      -0.911320       -24.7983
  45   1.0000      -0.911209       -24.7953
  46   1.0000      -0.901911       -24.5423
  47   1.0000      -0.901352       -24.5270
  48   1.0000      -0.792414       -21.5627
  49   1.0000      -0.756156       -20.5760
  50   1.0000      -0.693189       -18.8626
  51   1.0000      -0.691403       -18.8140
  52   1.0000      -0.680729       -18.5236
  53   1.0000      -0.664303       -18.0766
  54   1.0000      -0.644240       -17.5306
  55   1.0000      -0.622740       -16.9456
  56   1.0000      -0.603003       -16.4085
  57   1.0000      -0.595013       -16.1911
  58   1.0000      -0.584217       -15.8973
  59   1.0000      -0.574344       -15.6287
  60   1.0000      -0.571326       -15.5466
  61   1.0000      -0.561593       -15.2817
  62   1.0000      -0.555118       -15.1055
  63   1.0000      -0.550069       -14.9681
  64   1.0000      -0.542614       -14.7653
  65   1.0000      -0.519722       -14.1424
  66   1.0000      -0.519410       -14.1339
  67   1.0000      -0.483511       -13.1570
  68   1.0000      -0.466724       -12.7002
  69   1.0000      -0.460394       -12.5279
  70   1.0000      -0.433873       -11.8063
  71   1.0000      -0.430204       -11.7064
  72   1.0000      -0.428704       -11.6656
  73   1.0000      -0.419893       -11.4259
  74   1.0000      -0.418583       -11.3902
  75   1.0000      -0.417838       -11.3700
  76   1.0000      -0.379501       -10.3267
  77   0.0000       0.010461         0.2847
  78   0.0000       0.020845         0.5672
  79   0.0000       0.022188         0.6038
  80   0.0000       0.029845         0.8121
  81   0.0000       0.036615         0.9964

                 SPIN DOWN ORBITALS
  NO   OCC          E(Eh)            E(eV)
   0   1.0000    -261.555377     -7117.2836
   1   1.0000    -104.781093     -2851.2385
   2   1.0000    -104.777406     -2851.1382
   3   1.0000    -104.777159     -2851.1315
   4   1.0000     -32.064723      -872.5255
   5   1.0000     -27.542713      -749.4753
   6   1.0000     -27.542620      -749.4728
   7   1.0000     -27.542272      -749.4633
   8   1.0000     -20.566302      -559.6375
   9   1.0000     -11.402970      -310.2906
  10   1.0000     -11.331542      -308.3469
  11   1.0000     -11.268955      -306.6439
  12   1.0000     -11.265790      -306.5577
  13   1.0000     -11.263139      -306.4856
  14   1.0000     -11.256131      -306.2949
  15   1.0000     -11.252423      -306.1940
  16   1.0000     -11.251454      -306.1676
  17   1.0000     -10.507629      -285.9271
  18   1.0000     -10.503894      -285.8255
  19   1.0000     -10.503677      -285.8196
  20   1.0000      -7.973502      -216.9700
  21   1.0000      -7.972955      -216.9551
  22   1.0000      -7.972884      -216.9532
  23   1.0000      -7.969876      -216.8713
  24   1.0000      -7.969589      -216.8635
  25   1.0000      -7.969122      -216.8508
  26   1.0000      -7.969034      -216.8484
  27   1.0000      -7.968917      -216.8453
  28   1.0000      -7.968830      -216.8429
  29   1.0000      -4.139699      -112.6469
  30   1.0000      -2.661388       -72.4200
  31   1.0000      -2.661385       -72.4200
  32   1.0000      -2.660609       -72.3989
  33   1.0000      -1.406282       -38.2669
  34   1.0000      -1.162750       -31.6400
  35   1.0000      -1.084974       -29.5236
  36   1.0000      -1.039548       -28.2875
  37   1.0000      -1.037803       -28.2401
  38   1.0000      -1.027382       -27.9565
  39   1.0000      -1.024832       -27.8871
  40   1.0000      -0.994750       -27.0685
  41   1.0000      -0.983505       -26.7625
  42   1.0000      -0.922440       -25.1009
  43   1.0000      -0.805552       -21.9202
  44   1.0000      -0.756473       -20.5847
  45   1.0000      -0.694547       -18.8996
  46   1.0000      -0.691275       -18.8105
  47   1.0000      -0.681278       -18.5385
  48   1.0000      -0.663455       -18.0535
  49   1.0000      -0.644074       -17.5261
  50   1.0000      -0.622367       -16.9355
  51   1.0000      -0.602216       -16.3871
  52   1.0000      -0.595070       -16.1927
  53   1.0000      -0.584058       -15.8930
  54   1.0000      -0.573841       -15.6150
  55   1.0000      -0.571189       -15.5428
  56   1.0000      -0.561581       -15.2814
  57   1.0000      -0.554567       -15.0905
  58   1.0000      -0.549357       -14.9488
  59   1.0000      -0.538354       -14.6493
  60   1.0000      -0.519389       -14.1333
  61   1.0000      -0.510100       -13.8805
  62   1.0000      -0.482066       -13.1177
  63   1.0000      -0.471949       -12.8424
  64   1.0000      -0.470099       -12.7920
  65   1.0000      -0.442601       -12.0438
  66   1.0000      -0.439738       -11.9659
  67   1.0000      -0.437784       -11.9127
  68   1.0000      -0.423680       -11.5289
  69   1.0000      -0.418145       -11.3783
  70   1.0000      -0.404163       -10.9978
  71   1.0000      -0.376992       -10.2585
  72   0.0000       0.010457         0.2845
  73   0.0000       0.020818         0.5665
  74   0.0000       0.022170         0.6033
  75   0.0000       0.029806         0.8111
  76   0.0000       0.036240         0.9862

E(0)                                       ...  -3028.429322434
E(0)                                       ...  -3028.429322434
E(CORR)(strong-pairs)                      ...     -2.873691304
E(CORR)(weak-pairs)                        ...     -0.036408258
E(CORR)(corrected)                         ...     -2.910099562
E(TOT)                                     ...  -3031.339421996
E(CCSD(T))                                 ...  -3031.459369469
FINAL SINGLE POINT ENERGY     -3031.459369469360

DIPOLE MOMENT
-------------
                                X             Y             Z
Electronic contribution:     41.21965       3.87137       2.06700
Nuclear contribution   :    -45.53257      -4.30751      -2.62171
                        -----------------------------------------
Total Dipole Moment    :     -4.31292      -0.43613      -0.55471
                        -----------------------------------------
Magnitude (a.u.)       :      4.37026
Magnitude (Debye)      :     11.10831

Rotational constants in cm-1:     0.019169     0.011361     0.010652
Rotational constants in MHz :   574.659858   340.603772   319.347788

                             ****ORCA TERMINATED NORMALLY****
TOTAL RUN TIME: 0 days 21 hours 10 minutes 4 seconds 465 msec
