                         Program Version 4.1.2  - RELEASE  -
|  1> ! aug-cc-pVTZ aug-cc-pVTZ/C DLPNO-CCSD(T1) TightSCF NormalPNO UNO MiniPrint AutoAux
|  2> %pal nproc 10 end
|  3> %maxcore 20000
|  4> %mdci
|  5>      density none
|  6> end
|  7>
|  8> * xyz 0 6
|  9>  O     -0.28776700     -0.20396800     -0.75802900
| 10>  C     -1.13603800     -1.13958400     -0.63146700
| 11>  C     -3.08318300     -0.07844900      0.28647800
| 12>  C     -2.44694800      1.02375900     -0.18082800
| 13>  C     -2.62793600      1.50655700     -1.58885700
| 14> Fe      1.45575900      0.10408000      0.03747100
| 15> Cl      2.09546700      2.00669800     -0.81844700
| 16>  C     -1.57649100      1.89940800      0.66635800
| 17> Cl      2.55820200     -1.67253200     -0.62437800
| 18> Cl      1.22650400      0.14951800      2.22685100
| 19>  H     -3.77539100     -0.57642200     -0.39028100
| 20>  H     -2.15167600      2.79004400      0.95664100
| 21>  H     -1.22051700      1.41976000      1.57761800
| 22>  H     -0.71175800      2.25754900      0.09822800
| 23>  H     -2.95684400      2.55336900     -1.57351600
| 24>  H     -1.66864100      1.49004900     -2.12129700
| 25>  H     -3.36886100      0.92732900     -2.14562400
| 26>  C     -3.21235100     -0.46591600      1.73658900
| 27>  H     -4.08585900      0.03607500      2.17393900
| 28>  H     -3.37396300     -1.54101600      1.85648500
| 29>  H     -2.34293900     -0.18367100      2.33518300
| 30>  C     -0.99573400     -2.12163100      0.49437800
| 31>  H     -1.87661800     -2.75348000      0.60928300
| 32>  H     -0.14413100     -2.76113900      0.21710700
| 33>  H     -0.73966100     -1.63493700      1.43525100
| 34>  C     -1.80536200     -1.62610200     -1.88804400
| 35>  H     -1.07591800     -2.29939200     -2.36136500
| 36>  H     -2.71368200     -2.19604400     -1.68801800
| 37>  H     -1.99983300     -0.81329400     -2.58573100
| 38> *
| 39>
| 40>
| 41>                          ****END OF INPUT****

CARTESIAN COORDINATES (ANGSTROEM)
---------------------------------
  O     -0.287767   -0.203968   -0.758029
  C     -1.136038   -1.139584   -0.631467
  C     -3.083183   -0.078449    0.286478
  C     -2.446948    1.023759   -0.180828
  C     -2.627936    1.506557   -1.588857
  Fe     1.455759    0.104080    0.037471
  Cl     2.095467    2.006698   -0.818447
  C     -1.576491    1.899408    0.666358
  Cl     2.558202   -1.672532   -0.624378
  Cl     1.226504    0.149518    2.226851
  H     -3.775391   -0.576422   -0.390281
  H     -2.151676    2.790044    0.956641
  H     -1.220517    1.419760    1.577618
  H     -0.711758    2.257549    0.098228
  H     -2.956844    2.553369   -1.573516
  H     -1.668641    1.490049   -2.121297
  H     -3.368861    0.927329   -2.145624
  C     -3.212351   -0.465916    1.736589
  H     -4.085859    0.036075    2.173939
  H     -3.373963   -1.541016    1.856485
  H     -2.342939   -0.183671    2.335183
  C     -0.995734   -2.121631    0.494378
  H     -1.876618   -2.753480    0.609283
  H     -0.144131   -2.761139    0.217107
  H     -0.739661   -1.634937    1.435251
  C     -1.805362   -1.626102   -1.888044
  H     -1.075918   -2.299392   -2.361365
  H     -2.713682   -2.196044   -1.688018
  H     -1.999833   -0.813294   -2.585731

ORBITAL ENERGIES
----------------
                 SPIN UP ORBITALS
  NO   OCC          E(Eh)            E(eV)
   0   1.0000    -261.570293     -7117.6895
   1   1.0000    -104.789564     -2851.4690
   2   1.0000    -104.786759     -2851.3927
   3   1.0000    -104.785630     -2851.3620
   4   1.0000     -32.238052      -877.2420
   5   1.0000     -27.714406      -754.1473
   6   1.0000     -27.713465      -754.1217
   7   1.0000     -27.713301      -754.1173
   8   1.0000     -20.600955      -560.5805
   9   1.0000     -11.419346      -310.7362
  10   1.0000     -11.287417      -307.1462
  11   1.0000     -11.273888      -306.7781
  12   1.0000     -11.267750      -306.6111
  13   1.0000     -11.252181      -306.1874
  14   1.0000     -11.248212      -306.0794
  15   1.0000     -11.245609      -306.0086
  16   1.0000     -11.236970      -305.7735
  17   1.0000     -10.516250      -286.1617
  18   1.0000     -10.513412      -286.0845
  19   1.0000     -10.512236      -286.0525
  20   1.0000      -7.983098      -217.2311
  21   1.0000      -7.982316      -217.2099
  22   1.0000      -7.982274      -217.2087
  23   1.0000      -7.980292      -217.1548
  24   1.0000      -7.979506      -217.1334
  25   1.0000      -7.979434      -217.1314
  26   1.0000      -7.979031      -217.1205
  27   1.0000      -7.978356      -217.1021
  28   1.0000      -7.978300      -217.1006
  29   1.0000      -4.593067      -124.9837
  30   1.0000      -3.206107       -87.2426
  31   1.0000      -3.204611       -87.2019
  32   1.0000      -3.204401       -87.1962
  33   1.0000      -1.449710       -39.4486
  34   1.0000      -1.139828       -31.0163
  35   1.0000      -1.096961       -29.8498
  36   1.0000      -1.062265       -28.9057
  37   1.0000      -1.056702       -28.7543
  38   1.0000      -1.054276       -28.6883
  39   1.0000      -1.027288       -27.9539
  40   1.0000      -1.007433       -27.4137
  41   1.0000      -0.967347       -26.3228
  42   1.0000      -0.938028       -25.5250
  43   1.0000      -0.922151       -25.0930
  44   1.0000      -0.922039       -25.0899
  45   1.0000      -0.911684       -24.8082
  46   1.0000      -0.911337       -24.7988
  47   1.0000      -0.906411       -24.6647
  48   1.0000      -0.806430       -21.9441
  49   1.0000      -0.739176       -20.1140
  50   1.0000      -0.704230       -19.1631
  51   1.0000      -0.696335       -18.9482
  52   1.0000      -0.687524       -18.7085
  53   1.0000      -0.663304       -18.0494
  54   1.0000      -0.630057       -17.1447
  55   1.0000      -0.620779       -16.8923
  56   1.0000      -0.603978       -16.4351
  57   1.0000      -0.599597       -16.3159
  58   1.0000      -0.584104       -15.8943
  59   1.0000      -0.577095       -15.7035
  60   1.0000      -0.562643       -15.3103
  61   1.0000      -0.557871       -15.1805
  62   1.0000      -0.551993       -15.0205
  63   1.0000      -0.545780       -14.8514
  64   1.0000      -0.535707       -14.5773
  65   1.0000      -0.528396       -14.3784
  66   1.0000      -0.502975       -13.6867
  67   1.0000      -0.496487       -13.5101
  68   1.0000      -0.473923       -12.8961
  69   1.0000      -0.470773       -12.8104
  70   1.0000      -0.442493       -12.0409
  71   1.0000      -0.436925       -11.8893
  72   1.0000      -0.435442       -11.8490
  73   1.0000      -0.426765       -11.6129
  74   1.0000      -0.425423       -11.5764
  75   1.0000      -0.424799       -11.5594
  76   1.0000      -0.365529        -9.9466
  77   0.0000       0.012387         0.3371
  78   0.0000       0.023007         0.6260
  79   0.0000       0.023507         0.6397
  80   0.0000       0.030412         0.8276
  81   0.0000       0.039074         1.0633

                 SPIN DOWN ORBITALS
  NO   OCC          E(Eh)            E(eV)
   0   1.0000    -261.566725     -7117.5925
   1   1.0000    -104.788104     -2851.4293
   2   1.0000    -104.785238     -2851.3513
   3   1.0000    -104.784118     -2851.3208
   4   1.0000     -32.076032      -872.8332
   5   1.0000     -27.553950      -749.7811
   6   1.0000     -27.553906      -749.7799
   7   1.0000     -27.553713      -749.7746
   8   1.0000     -20.597121      -560.4762
   9   1.0000     -11.419227      -310.7330
  10   1.0000     -11.287415      -307.1462
  11   1.0000     -11.273780      -306.7751
  12   1.0000     -11.267742      -306.6108
  13   1.0000     -11.252079      -306.1846
  14   1.0000     -11.248209      -306.0793
  15   1.0000     -11.245620      -306.0089
  16   1.0000     -11.236991      -305.7741
  17   1.0000     -10.514688      -286.1192
  18   1.0000     -10.511787      -286.0403
  19   1.0000     -10.510628      -286.0087
  20   1.0000      -7.980592      -217.1630
  21   1.0000      -7.979915      -217.1445
  22   1.0000      -7.979861      -217.1431
  23   1.0000      -7.977667      -217.0833
  24   1.0000      -7.977012      -217.0655
  25   1.0000      -7.976916      -217.0629
  26   1.0000      -7.976614      -217.0547
  27   1.0000      -7.975771      -217.0318
  28   1.0000      -7.975688      -217.0295
  29   1.0000      -4.150866      -112.9508
  30   1.0000      -2.672449       -72.7210
  31   1.0000      -2.672426       -72.7204
  32   1.0000      -2.671896       -72.7060
  33   1.0000      -1.440100       -39.1871
  34   1.0000      -1.139372       -31.0039
  35   1.0000      -1.094447       -29.7814
  36   1.0000      -1.047041       -28.4914
  37   1.0000      -1.034686       -28.1552
  38   1.0000      -1.032276       -28.0896
  39   1.0000      -1.026862       -27.9423
  40   1.0000      -1.006622       -27.3916
  41   1.0000      -0.967230       -26.3197
  42   1.0000      -0.906860       -24.6769
  43   1.0000      -0.819642       -22.3036
  44   1.0000      -0.739237       -20.1157
  45   1.0000      -0.706925       -19.2364
  46   1.0000      -0.695694       -18.9308
  47   1.0000      -0.686370       -18.6771
  48   1.0000      -0.663197       -18.0465
  49   1.0000      -0.629965       -17.1422
  50   1.0000      -0.620290       -16.8790
  51   1.0000      -0.603641       -16.4259
  52   1.0000      -0.599543       -16.3144
  53   1.0000      -0.583798       -15.8860
  54   1.0000      -0.576483       -15.6869
  55   1.0000      -0.562137       -15.2965
  56   1.0000      -0.557740       -15.1769
  57   1.0000      -0.549416       -14.9504
  58   1.0000      -0.545586       -14.8462
  59   1.0000      -0.534475       -14.5438
  60   1.0000      -0.518349       -14.1050
  61   1.0000      -0.502930       -13.6854
  62   1.0000      -0.496850       -13.5200
  63   1.0000      -0.480692       -13.0803
  64   1.0000      -0.479011       -13.0345
  65   1.0000      -0.450057       -12.2467
  66   1.0000      -0.447020       -12.1640
  67   1.0000      -0.444553       -12.0969
  68   1.0000      -0.428654       -11.6643
  69   1.0000      -0.425660       -11.5828
  70   1.0000      -0.410254       -11.1636
  71   1.0000      -0.364420        -9.9164
  72   0.0000       0.012374         0.3367
  73   0.0000       0.022981         0.6253
  74   0.0000       0.023486         0.6391
  75   0.0000       0.030373         0.8265
  76   0.0000       0.038956         1.0601

E(0)                                       ...  -3028.446913584
E(0)                                       ...  -3028.446913584
E(CORR)(strong-pairs)                      ...     -2.870884184
E(CORR)(weak-pairs)                        ...     -0.036249157
E(CORR)(corrected)                         ...     -2.907133341
E(TOT)                                     ...  -3031.354046925
E(CCSD(T))                                 ...  -3031.472922333
FINAL SINGLE POINT ENERGY     -3031.472922332978

DIPOLE MOMENT
-------------
                                X             Y             Z
Electronic contribution:     42.74210       3.24564       2.15670
Nuclear contribution   :    -46.43546      -4.21894      -2.77794
                        -----------------------------------------
Total Dipole Moment    :     -3.69337      -0.97331      -0.62124
                        -----------------------------------------
Magnitude (a.u.)       :      3.86965
Magnitude (Debye)      :      9.83588

Rotational constants in cm-1:     0.019142     0.011018     0.010377
Rotational constants in MHz :   573.848141   330.304089   311.105433

                             ****ORCA TERMINATED NORMALLY****
TOTAL RUN TIME: 0 days 18 hours 41 minutes 3 seconds 621 msec
