                         Program Version 4.1.2  - RELEASE  -
|  1> ! aug-cc-pVTZ aug-cc-pVTZ/C DLPNO-CCSD(T1) TightSCF NormalPNO UNO MiniPrint AutoAux
|  2> %pal nproc 10 end
|  3> %maxcore 20000
|  4> %mdci
|  5>      density none
|  6> end
|  7>
|  8> * xyz 0 6
|  9>  O     -0.30061000     -0.21880900     -0.61704100
| 10>  C     -1.14645900     -1.16881600     -0.44111700
| 11>  C     -2.73894100     -0.32285300      0.72971800
| 12>  C     -2.85063900      0.79406000     -0.05898700
| 13>  C     -3.75939600      0.83781700     -1.24752900
| 14> Fe      1.49222300      0.17324300     -0.05965600
| 15> Cl      1.88436100      2.11650300     -0.98627800
| 16>  C     -2.02147300      2.00721300      0.17387200
| 17> Cl      2.63916400     -1.52544300     -0.84006500
| 18> Cl      1.52249600      0.26538700      2.14169700
| 19>  H     -3.44387700     -1.12820200      0.52721800
| 20>  H     -2.49403300      2.90675300     -0.23058200
| 21>  H     -1.76739700      2.16487700      1.22361400
| 22>  H     -1.07235100      1.86604100     -0.36975000
| 23>  H     -4.53226200      1.59766800     -1.06811200
| 24>  H     -3.22003500      1.15807700     -2.14838700
| 25>  H     -4.25832000     -0.11414800     -1.43971400
| 26>  C     -2.19937600     -0.25683900      2.14355100
| 27>  H     -2.83814800      0.39610500      2.75075200
| 28>  H     -2.20384100     -1.24189700      2.61377300
| 29>  H     -1.18141100      0.13614800      2.19319500
| 30>  C     -0.78417700     -2.26719600      0.53634700
| 31>  H     -1.63310000     -2.90825900      0.78238100
| 32>  H     -0.02779900     -2.87413600      0.01978900
| 33>  H     -0.32315500     -1.87737200      1.44292300
| 34>  C     -1.86158300     -1.63681000     -1.69055300
| 35>  H     -1.15741000     -2.30020100     -2.20948200
| 36>  H     -2.76702700     -2.20741400     -1.47294600
| 37>  H     -2.08284900     -0.80691700     -2.36012600
| 38> *
| 39>
| 40>
| 41>                          ****END OF INPUT****

CARTESIAN COORDINATES (ANGSTROEM)
---------------------------------
  O     -0.300610   -0.218809   -0.617041
  C     -1.146459   -1.168816   -0.441117
  C     -2.738941   -0.322853    0.729718
  C     -2.850639    0.794060   -0.058987
  C     -3.759396    0.837817   -1.247529
  Fe     1.492223    0.173243   -0.059656
  Cl     1.884361    2.116503   -0.986278
  C     -2.021473    2.007213    0.173872
  Cl     2.639164   -1.525443   -0.840065
  Cl     1.522496    0.265387    2.141697
  H     -3.443877   -1.128202    0.527218
  H     -2.494033    2.906753   -0.230582
  H     -1.767397    2.164877    1.223614
  H     -1.072351    1.866041   -0.369750
  H     -4.532262    1.597668   -1.068112
  H     -3.220035    1.158077   -2.148387
  H     -4.258320   -0.114148   -1.439714
  C     -2.199376   -0.256839    2.143551
  H     -2.838148    0.396105    2.750752
  H     -2.203841   -1.241897    2.613773
  H     -1.181411    0.136148    2.193195
  C     -0.784177   -2.267196    0.536347
  H     -1.633100   -2.908259    0.782381
  H     -0.027799   -2.874136    0.019789
  H     -0.323155   -1.877372    1.442923
  C     -1.861583   -1.636810   -1.690553
  H     -1.157410   -2.300201   -2.209482
  H     -2.767027   -2.207414   -1.472946
  H     -2.082849   -0.806917   -2.360126

ORBITAL ENERGIES
----------------
                 SPIN UP ORBITALS
  NO   OCC          E(Eh)            E(eV)
   0   1.0000    -261.561422     -7117.4481
   1   1.0000    -104.783718     -2851.3099
   2   1.0000    -104.780524     -2851.2230
   3   1.0000    -104.779194     -2851.1868
   4   1.0000     -32.229256      -877.0026
   5   1.0000     -27.705505      -753.9051
   6   1.0000     -27.704731      -753.8841
   7   1.0000     -27.704564      -753.8795
   8   1.0000     -20.585356      -560.1560
   9   1.0000     -11.406430      -310.3847
  10   1.0000     -11.317155      -307.9554
  11   1.0000     -11.268576      -306.6335
  12   1.0000     -11.266394      -306.5742
  13   1.0000     -11.265328      -306.5452
  14   1.0000     -11.261566      -306.4428
  15   1.0000     -11.248772      -306.0946
  16   1.0000     -11.243506      -305.9513
  17   1.0000     -10.510379      -286.0020
  18   1.0000     -10.507174      -285.9148
  19   1.0000     -10.505796      -285.8772
  20   1.0000      -7.977231      -217.0715
  21   1.0000      -7.976426      -217.0496
  22   1.0000      -7.976410      -217.0492
  23   1.0000      -7.974031      -216.9844
  24   1.0000      -7.973276      -216.9639
  25   1.0000      -7.973205      -216.9619
  26   1.0000      -7.972612      -216.9458
  27   1.0000      -7.971917      -216.9269
  28   1.0000      -7.971837      -216.9247
  29   1.0000      -4.584454      -124.7493
  30   1.0000      -3.197431       -87.0065
  31   1.0000      -3.196120       -86.9708
  32   1.0000      -3.195859       -86.9637
  33   1.0000      -1.428992       -38.8849
  34   1.0000      -1.157625       -31.5006
  35   1.0000      -1.088000       -29.6060
  36   1.0000      -1.055586       -28.7240
  37   1.0000      -1.050118       -28.5752
  38   1.0000      -1.047324       -28.4991
  39   1.0000      -1.034948       -28.1624
  40   1.0000      -0.995759       -27.0960
  41   1.0000      -0.983827       -26.7713
  42   1.0000      -0.930601       -25.3229
  43   1.0000      -0.914025       -24.8719
  44   1.0000      -0.913655       -24.8618
  45   1.0000      -0.913523       -24.8582
  46   1.0000      -0.903712       -24.5912
  47   1.0000      -0.903198       -24.5773
  48   1.0000      -0.798248       -21.7214
  49   1.0000      -0.754025       -20.5181
  50   1.0000      -0.693070       -18.8594
  51   1.0000      -0.685769       -18.6607
  52   1.0000      -0.681363       -18.5408
  53   1.0000      -0.671857       -18.2822
  54   1.0000      -0.642582       -17.4856
  55   1.0000      -0.623530       -16.9671
  56   1.0000      -0.603717       -16.4280
  57   1.0000      -0.595711       -16.2101
  58   1.0000      -0.582223       -15.8431
  59   1.0000      -0.574693       -15.6382
  60   1.0000      -0.572484       -15.5781
  61   1.0000      -0.562416       -15.3041
  62   1.0000      -0.556940       -15.1551
  63   1.0000      -0.541480       -14.7344
  64   1.0000      -0.537591       -14.6286
  65   1.0000      -0.522558       -14.2195
  66   1.0000      -0.516490       -14.0544
  67   1.0000      -0.486923       -13.2498
  68   1.0000      -0.468612       -12.7516
  69   1.0000      -0.462421       -12.5831
  70   1.0000      -0.435871       -11.8607
  71   1.0000      -0.431760       -11.7488
  72   1.0000      -0.429204       -11.6792
  73   1.0000      -0.420894       -11.4531
  74   1.0000      -0.419453       -11.4139
  75   1.0000      -0.418477       -11.3873
  76   1.0000      -0.376970       -10.2579
  77   0.0000       0.010261         0.2792
  78   0.0000       0.020920         0.5693
  79   0.0000       0.022484         0.6118
  80   0.0000       0.028137         0.7656
  81   0.0000       0.035810         0.9744

                 SPIN DOWN ORBITALS
  NO   OCC          E(Eh)            E(eV)
   0   1.0000    -261.557858     -7117.3512
   1   1.0000    -104.782273     -2851.2706
   2   1.0000    -104.779030     -2851.1824
   3   1.0000    -104.777714     -2851.1465
   4   1.0000     -32.067204      -872.5930
   5   1.0000     -27.545152      -749.5417
   6   1.0000     -27.545086      -749.5399
   7   1.0000     -27.544826      -749.5328
   8   1.0000     -20.581192      -560.0427
   9   1.0000     -11.406340      -310.3823
  10   1.0000     -11.316744      -307.9442
  11   1.0000     -11.268631      -306.6350
  12   1.0000     -11.266287      -306.5713
  13   1.0000     -11.265498      -306.5498
  14   1.0000     -11.261558      -306.4426
  15   1.0000     -11.248835      -306.0964
  16   1.0000     -11.243493      -305.9510
  17   1.0000     -10.508830      -285.9598
  18   1.0000     -10.505577      -285.8713
  19   1.0000     -10.504219      -285.8343
  20   1.0000      -7.974721      -217.0032
  21   1.0000      -7.974083      -216.9858
  22   1.0000      -7.974021      -216.9841
  23   1.0000      -7.971491      -216.9153
  24   1.0000      -7.970805      -216.8966
  25   1.0000      -7.970714      -216.8942
  26   1.0000      -7.970186      -216.8798
  27   1.0000      -7.969418      -216.8589
  28   1.0000      -7.969321      -216.8563
  29   1.0000      -4.142183      -112.7145
  30   1.0000      -2.663844       -72.4869
  31   1.0000      -2.663812       -72.4860
  32   1.0000      -2.663190       -72.4691
  33   1.0000      -1.418412       -38.5969
  34   1.0000      -1.156681       -31.4749
  35   1.0000      -1.085317       -29.5330
  36   1.0000      -1.040895       -28.3242
  37   1.0000      -1.034779       -28.1578
  38   1.0000      -1.028124       -27.9767
  39   1.0000      -1.025733       -27.9116
  40   1.0000      -0.995183       -27.0803
  41   1.0000      -0.983666       -26.7669
  42   1.0000      -0.914568       -24.8867
  43   1.0000      -0.812751       -22.1161
  44   1.0000      -0.754175       -20.5221
  45   1.0000      -0.695854       -18.9351
  46   1.0000      -0.685425       -18.6514
  47   1.0000      -0.680479       -18.5168
  48   1.0000      -0.671477       -18.2718
  49   1.0000      -0.642495       -17.4832
  50   1.0000      -0.622873       -16.9492
  51   1.0000      -0.603178       -16.4133
  52   1.0000      -0.595608       -16.2073
  53   1.0000      -0.581994       -15.8369
  54   1.0000      -0.574479       -15.6324
  55   1.0000      -0.571566       -15.5531
  56   1.0000      -0.562475       -15.3057
  57   1.0000      -0.556754       -15.1501
  58   1.0000      -0.541095       -14.7239
  59   1.0000      -0.534540       -14.5456
  60   1.0000      -0.516665       -14.0592
  61   1.0000      -0.512196       -13.9376
  62   1.0000      -0.486006       -13.2249
  63   1.0000      -0.473931       -12.8963
  64   1.0000      -0.471763       -12.8373
  65   1.0000      -0.444611       -12.0985
  66   1.0000      -0.440988       -11.9999
  67   1.0000      -0.438817       -11.9408
  68   1.0000      -0.424813       -11.5597
  69   1.0000      -0.418841       -11.3973
  70   1.0000      -0.404439       -11.0053
  71   1.0000      -0.374990       -10.2040
  72   0.0000       0.010255         0.2791
  73   0.0000       0.020905         0.5689
  74   0.0000       0.022482         0.6118
  75   0.0000       0.027918         0.7597
  76   0.0000       0.035069         0.9543

E(0)                                       ...  -3028.437169515
E(0)                                       ...  -3028.437169515
E(CORR)(strong-pairs)                      ...     -2.873506948
E(CORR)(weak-pairs)                        ...     -0.036275044
E(CORR)(corrected)                         ...     -2.909781992
E(TOT)                                     ...  -3031.346951507
E(CCSD(T))                                 ...  -3031.467016920
FINAL SINGLE POINT ENERGY     -3031.467016920104

DIPOLE MOMENT
-------------
                                X             Y             Z
Electronic contribution:     43.21222       5.94450      -0.33546
Nuclear contribution   :    -47.56637      -6.86461       0.02110
                        -----------------------------------------
Total Dipole Moment    :     -4.35415      -0.92011      -0.31437
                        -----------------------------------------
Magnitude (a.u.)       :      4.46139
Magnitude (Debye)      :     11.33996

Rotational constants in cm-1:     0.019341     0.010546     0.010019
Rotational constants in MHz :   579.821065   316.161452   300.362066

                             ****ORCA TERMINATED NORMALLY****
TOTAL RUN TIME: 0 days 18 hours 26 minutes 59 seconds 140 msec
