                         Program Version 4.1.2  - RELEASE  -
|  1> ! aug-cc-pVTZ aug-cc-pVTZ/C DLPNO-CCSD(T1) TightSCF NormalPNO UNO MiniPrint AutoAux
|  2> %pal nproc 10 end
|  3> %maxcore 20000
|  4> %mdci
|  5>      density none
|  6> end
|  7>
|  8> * xyz 0 6
|  9>  O      0.20072700      0.34375200     -0.85566600
| 10>  C      1.03649600      1.26963900     -0.66420800
| 11>  C      2.93951700      0.22861900      0.57869100
| 12>  C      2.70404600     -0.91482600     -0.10772000
| 13>  C      3.31500300     -1.16651100     -1.45685000
| 14> Fe     -1.48585100     -0.16404200     -0.00790100
| 15> Cl     -2.03168200     -2.03212100     -0.98557400
| 16>  C      1.79809800     -2.00337500      0.38085100
| 17> Cl     -2.74191900      1.56859500     -0.46549200
| 18> Cl     -1.12048300     -0.37914800      2.14914300
| 19>  H      3.65320500      0.92760000      0.14362000
| 20>  H      2.33385700     -2.96102100      0.40440900
| 21>  H      1.37952800     -1.81585500      1.36914900
| 22>  H      0.96449800     -2.13521600     -0.32299900
| 23>  H      3.91300100     -2.08654900     -1.42576500
| 24>  H      2.53700700     -1.33204800     -2.21446200
| 25>  H      3.96726100     -0.35221100     -1.78299500
| 26>  C      2.63259300      0.44630600      2.04030500
| 27>  H      3.39049800     -0.05830800      2.65405600
| 28>  H      2.66931900      1.50633900      2.30416300
| 29>  H      1.65678200      0.05741000      2.33927300
| 30>  C      0.81144600      2.26668800      0.43384700
| 31>  H      1.69473700      2.87423100      0.63306300
| 32>  H      0.00966600      2.92541500      0.06805700
| 33>  H      0.45051900      1.79671000      1.34838400
| 34>  C      1.85369000      1.70425300     -1.84853400
| 35>  H      1.22962200      2.43158100     -2.38785600
| 36>  H      2.77934600      2.20458700     -1.56189800
| 37>  H      2.05156000      0.87308800     -2.52302200
| 38> *
| 39>
| 40>
| 41>                          ****END OF INPUT****

CARTESIAN COORDINATES (ANGSTROEM)
---------------------------------
  O      0.200727    0.343752   -0.855666
  C      1.036496    1.269639   -0.664208
  C      2.939517    0.228619    0.578691
  C      2.704046   -0.914826   -0.107720
  C      3.315003   -1.166511   -1.456850
  Fe    -1.485851   -0.164042   -0.007901
  Cl    -2.031682   -2.032121   -0.985574
  C      1.798098   -2.003375    0.380851
  Cl    -2.741919    1.568595   -0.465492
  Cl    -1.120483   -0.379148    2.149143
  H      3.653205    0.927600    0.143620
  H      2.333857   -2.961021    0.404409
  H      1.379528   -1.815855    1.369149
  H      0.964498   -2.135216   -0.322999
  H      3.913001   -2.086549   -1.425765
  H      2.537007   -1.332048   -2.214462
  H      3.967261   -0.352211   -1.782995
  C      2.632593    0.446306    2.040305
  H      3.390498   -0.058308    2.654056
  H      2.669319    1.506339    2.304163
  H      1.656782    0.057410    2.339273
  C      0.811446    2.266688    0.433847
  H      1.694737    2.874231    0.633063
  H      0.009666    2.925415    0.068057
  H      0.450519    1.796710    1.348384
  C      1.853690    1.704253   -1.848534
  H      1.229622    2.431581   -2.387856
  H      2.779346    2.204587   -1.561898
  H      2.051560    0.873088   -2.523022

ORBITAL ENERGIES
----------------
                 SPIN UP ORBITALS
  NO   OCC          E(Eh)            E(eV)
   0   1.0000    -261.572532     -7117.7505
   1   1.0000    -104.792112     -2851.5383
   2   1.0000    -104.788468     -2851.4392
   3   1.0000    -104.786299     -2851.3802
   4   1.0000     -32.240285      -877.3027
   5   1.0000     -27.716706      -754.2099
   6   1.0000     -27.715665      -754.1816
   7   1.0000     -27.715460      -754.1760
   8   1.0000     -20.613598      -560.9245
   9   1.0000     -11.420200      -310.7594
  10   1.0000     -11.277253      -306.8696
  11   1.0000     -11.275765      -306.8292
  12   1.0000     -11.270887      -306.6964
  13   1.0000     -11.248672      -306.0919
  14   1.0000     -11.248577      -306.0893
  15   1.0000     -11.237402      -305.7853
  16   1.0000     -11.233621      -305.6824
  17   1.0000     -10.518825      -286.2318
  18   1.0000     -10.515149      -286.1317
  19   1.0000     -10.512932      -286.0714
  20   1.0000      -7.985664      -217.3010
  21   1.0000      -7.984895      -217.2800
  22   1.0000      -7.984852      -217.2789
  23   1.0000      -7.982014      -217.2017
  24   1.0000      -7.981249      -217.1808
  25   1.0000      -7.981196      -217.1794
  26   1.0000      -7.979730      -217.1395
  27   1.0000      -7.979061      -217.1213
  28   1.0000      -7.979004      -217.1197
  29   1.0000      -4.595245      -125.0430
  30   1.0000      -3.208366       -87.3041
  31   1.0000      -3.206709       -87.2590
  32   1.0000      -3.206522       -87.2539
  33   1.0000      -1.456834       -39.6425
  34   1.0000      -1.132849       -30.8264
  35   1.0000      -1.097977       -29.8775
  36   1.0000      -1.064783       -28.9742
  37   1.0000      -1.058870       -28.8133
  38   1.0000      -1.055654       -28.7258
  39   1.0000      -1.023786       -27.8586
  40   1.0000      -1.007881       -27.4258
  41   1.0000      -0.963579       -26.2203
  42   1.0000      -0.940319       -25.5874
  43   1.0000      -0.924242       -25.1499
  44   1.0000      -0.924104       -25.1461
  45   1.0000      -0.913701       -24.8631
  46   1.0000      -0.912967       -24.8431
  47   1.0000      -0.900063       -24.4919
  48   1.0000      -0.810797       -22.0629
  49   1.0000      -0.735209       -20.0060
  50   1.0000      -0.707991       -19.2654
  51   1.0000      -0.698111       -18.9966
  52   1.0000      -0.683256       -18.5923
  53   1.0000      -0.659312       -17.9408
  54   1.0000      -0.625425       -17.0187
  55   1.0000      -0.621184       -16.9033
  56   1.0000      -0.605544       -16.4777
  57   1.0000      -0.598715       -16.2919
  58   1.0000      -0.584992       -15.9184
  59   1.0000      -0.577074       -15.7030
  60   1.0000      -0.561045       -15.2668
  61   1.0000      -0.555565       -15.1177
  62   1.0000      -0.546027       -14.8582
  63   1.0000      -0.544594       -14.8192
  64   1.0000      -0.535450       -14.5703
  65   1.0000      -0.528417       -14.3790
  66   1.0000      -0.501004       -13.6330
  67   1.0000      -0.497261       -13.5312
  68   1.0000      -0.475283       -12.9331
  69   1.0000      -0.473685       -12.8896
  70   1.0000      -0.444611       -12.0985
  71   1.0000      -0.438742       -11.9388
  72   1.0000      -0.436764       -11.8849
  73   1.0000      -0.428297       -11.6545
  74   1.0000      -0.427132       -11.6228
  75   1.0000      -0.425771       -11.5858
  76   1.0000      -0.363156        -9.8820
  77   0.0000       0.012344         0.3359
  78   0.0000       0.023040         0.6270
  79   0.0000       0.023869         0.6495
  80   0.0000       0.030320         0.8250
  81   0.0000       0.038993         1.0611

                 SPIN DOWN ORBITALS
  NO   OCC          E(Eh)            E(eV)
   0   1.0000    -261.568955     -7117.6531
   1   1.0000    -104.790638     -2851.4982
   2   1.0000    -104.786922     -2851.3971
   3   1.0000    -104.784752     -2851.3381
   4   1.0000     -32.078274      -872.8942
   5   1.0000     -27.556186      -749.8420
   6   1.0000     -27.556127      -749.8403
   7   1.0000     -27.555996      -749.8368
   8   1.0000     -20.609925      -560.8246
   9   1.0000     -11.420113      -310.7571
  10   1.0000     -11.277225      -306.8689
  11   1.0000     -11.275655      -306.8262
  12   1.0000     -11.270874      -306.6961
  13   1.0000     -11.248659      -306.0916
  14   1.0000     -11.248580      -306.0894
  15   1.0000     -11.237400      -305.7852
  16   1.0000     -11.233638      -305.6828
  17   1.0000     -10.517249      -286.1889
  18   1.0000     -10.513498      -286.0868
  19   1.0000     -10.511287      -286.0266
  20   1.0000      -7.983160      -217.2328
  21   1.0000      -7.982452      -217.2136
  22   1.0000      -7.982411      -217.2124
  23   1.0000      -7.979394      -217.1304
  24   1.0000      -7.978689      -217.1112
  25   1.0000      -7.978602      -217.1088
  26   1.0000      -7.977270      -217.0726
  27   1.0000      -7.976406      -217.0490
  28   1.0000      -7.976320      -217.0467
  29   1.0000      -4.153108      -113.0118
  30   1.0000      -2.674690       -72.7820
  31   1.0000      -2.674649       -72.7809
  32   1.0000      -2.674160       -72.7676
  33   1.0000      -1.447762       -39.3956
  34   1.0000      -1.132507       -30.8171
  35   1.0000      -1.095463       -29.8091
  36   1.0000      -1.049231       -28.5510
  37   1.0000      -1.036740       -28.2111
  38   1.0000      -1.033168       -28.1139
  39   1.0000      -1.023173       -27.8419
  40   1.0000      -1.007283       -27.4096
  41   1.0000      -0.963502       -26.2182
  42   1.0000      -0.900247       -24.4970
  43   1.0000      -0.824449       -22.4344
  44   1.0000      -0.735289       -20.0082
  45   1.0000      -0.710244       -19.3267
  46   1.0000      -0.697175       -18.9711
  47   1.0000      -0.682611       -18.5748
  48   1.0000      -0.659236       -17.9387
  49   1.0000      -0.625396       -17.0179
  50   1.0000      -0.620678       -16.8895
  51   1.0000      -0.605217       -16.4688
  52   1.0000      -0.598581       -16.2882
  53   1.0000      -0.584675       -15.9098
  54   1.0000      -0.575520       -15.6607
  55   1.0000      -0.560532       -15.2528
  56   1.0000      -0.555372       -15.1125
  57   1.0000      -0.544642       -14.8205
  58   1.0000      -0.544402       -14.8139
  59   1.0000      -0.529622       -14.4118
  60   1.0000      -0.522060       -14.2060
  61   1.0000      -0.502330       -13.6691
  62   1.0000      -0.497493       -13.5375
  63   1.0000      -0.483161       -13.1475
  64   1.0000      -0.480289       -13.0693
  65   1.0000      -0.452402       -12.3105
  66   1.0000      -0.448778       -12.2119
  67   1.0000      -0.446000       -12.1363
  68   1.0000      -0.429977       -11.7003
  69   1.0000      -0.426778       -11.6132
  70   1.0000      -0.411564       -11.1992
  71   1.0000      -0.362383        -9.8609
  72   0.0000       0.012328         0.3355
  73   0.0000       0.023015         0.6263
  74   0.0000       0.023834         0.6486
  75   0.0000       0.030213         0.8221
  76   0.0000       0.038832         1.0567

E(0)                                       ...  -3028.458499788
E(0)                                       ...  -3028.458499788
E(CORR)(strong-pairs)                      ...     -2.868542147
E(CORR)(weak-pairs)                        ...     -0.036108649
E(CORR)(corrected)                         ...     -2.904650796
E(TOT)                                     ...  -3031.363150583
E(CCSD(T))                                 ...  -3031.481530288
FINAL SINGLE POINT ENERGY     -3031.481530287628

DIPOLE MOMENT
-------------
                                X             Y             Z
Electronic contribution:    -43.48857      -5.12879       1.26083
Nuclear contribution   :     47.02107       6.45023      -1.86616
                        -----------------------------------------
Total Dipole Moment    :      3.53250       1.32144      -0.60533
                        -----------------------------------------
Magnitude (a.u.)       :      3.81984
Magnitude (Debye)      :      9.70926

Rotational constants in cm-1:     0.018977     0.010713     0.010079
Rotational constants in MHz :   568.929775   321.170665   302.173736

                             ****ORCA TERMINATED NORMALLY****
TOTAL RUN TIME: 0 days 17 hours 6 minutes 19 seconds 238 msec
