                         Program Version 4.1.2  - RELEASE  -
|  1> ! aug-cc-pVTZ aug-cc-pVTZ/C DLPNO-CCSD(T1) TightSCF NormalPNO UNO MiniPrint AutoAux
|  2> %pal nproc 10 end
|  3> %maxcore 20000
|  4> %mdci
|  5>      density none
|  6> end
|  7>
|  8> * xyz 0 6
|  9>  O     -0.27113900     -0.25664300     -0.81059000
| 10>  C     -1.09860900     -1.20006800     -0.65111500
| 11>  C     -3.01032800     -0.12444100      0.44015000
| 12>  C     -2.52173000      0.98424600     -0.16438100
| 13>  C     -2.89981300      1.35374100     -1.56924000
| 14> Fe      1.45170800      0.12794800      0.01882900
| 15> Cl      2.08342400      2.00692900     -0.88729600
| 16>  C     -1.61329100      1.96754000      0.50617000
| 17> Cl      2.61452300     -1.64093700     -0.54680300
| 18> Cl      1.15064300      0.24747600      2.19634400
| 19>  H     -3.73855900     -0.71373300     -0.11535300
| 20>  H     -2.16328700      2.90304100      0.67859900
| 21>  H     -1.21947900      1.62580500      1.46234300
| 22>  H     -0.77102300      2.22238800     -0.14756200
| 23>  H     -3.32890500      2.36377700     -1.57926100
| 24>  H     -2.00833100      1.39089400     -2.20892200
| 25>  H     -3.63366000      0.67103900     -2.00510900
| 26>  C     -2.92296200     -0.42808500      1.91412400
| 27>  H     -3.73575600      0.08457600      2.44580700
| 28>  H     -3.04131300     -1.49690500      2.11299000
| 29>  H     -1.98210900     -0.10196300      2.36422400
| 30>  C     -0.91215200     -2.18652000      0.46350000
| 31>  H     -1.79410500     -2.80884000      0.61824600
| 32>  H     -0.08152600     -2.83373600      0.14416000
| 33>  H     -0.60807600     -1.70626800      1.39299500
| 34>  C     -1.84279900     -1.67444000     -1.86854700
| 35>  H     -1.16926200     -2.39183200     -2.35965400
| 36>  H     -2.76675300     -2.19800100     -1.61946600
| 37>  H     -2.02907000     -0.86453100     -2.57099700
| 38> *
| 39>
| 40>
| 41>                          ****END OF INPUT****

CARTESIAN COORDINATES (ANGSTROEM)
---------------------------------
  O     -0.271139   -0.256643   -0.810590
  C     -1.098609   -1.200068   -0.651115
  C     -3.010328   -0.124441    0.440150
  C     -2.521730    0.984246   -0.164381
  C     -2.899813    1.353741   -1.569240
  Fe     1.451708    0.127948    0.018829
  Cl     2.083424    2.006929   -0.887296
  C     -1.613291    1.967540    0.506170
  Cl     2.614523   -1.640937   -0.546803
  Cl     1.150643    0.247476    2.196344
  H     -3.738559   -0.713733   -0.115353
  H     -2.163287    2.903041    0.678599
  H     -1.219479    1.625805    1.462343
  H     -0.771023    2.222388   -0.147562
  H     -3.328905    2.363777   -1.579261
  H     -2.008331    1.390894   -2.208922
  H     -3.633660    0.671039   -2.005109
  C     -2.922962   -0.428085    1.914124
  H     -3.735756    0.084576    2.445807
  H     -3.041313   -1.496905    2.112990
  H     -1.982109   -0.101963    2.364224
  C     -0.912152   -2.186520    0.463500
  H     -1.794105   -2.808840    0.618246
  H     -0.081526   -2.833736    0.144160
  H     -0.608076   -1.706268    1.392995
  C     -1.842799   -1.674440   -1.868547
  H     -1.169262   -2.391832   -2.359654
  H     -2.766753   -2.198001   -1.619466
  H     -2.029070   -0.864531   -2.570997

ORBITAL ENERGIES
----------------
                 SPIN UP ORBITALS
  NO   OCC          E(Eh)            E(eV)
   0   1.0000    -261.572068     -7117.7378
   1   1.0000    -104.791165     -2851.5126
   2   1.0000    -104.787931     -2851.4246
   3   1.0000    -104.786442     -2851.3841
   4   1.0000     -32.239813      -877.2899
   5   1.0000     -27.716195      -754.1960
   6   1.0000     -27.715208      -754.1692
   7   1.0000     -27.715036      -754.1645
   8   1.0000     -20.607086      -560.7473
   9   1.0000     -11.419957      -310.7528
  10   1.0000     -11.281128      -306.9751
  11   1.0000     -11.274896      -306.8055
  12   1.0000     -11.268729      -306.6377
  13   1.0000     -11.249483      -306.1140
  14   1.0000     -11.247924      -306.0716
  15   1.0000     -11.241425      -305.8947
  16   1.0000     -11.234022      -305.6933
  17   1.0000     -10.517864      -286.2056
  18   1.0000     -10.514605      -286.1170
  19   1.0000     -10.513068      -286.0751
  20   1.0000      -7.984708      -217.2749
  21   1.0000      -7.983930      -217.2538
  22   1.0000      -7.983885      -217.2525
  23   1.0000      -7.981486      -217.1873
  24   1.0000      -7.980699      -217.1658
  25   1.0000      -7.980638      -217.1642
  26   1.0000      -7.979861      -217.1431
  27   1.0000      -7.979190      -217.1248
  28   1.0000      -7.979139      -217.1234
  29   1.0000      -4.594767      -125.0300
  30   1.0000      -3.207814       -87.2891
  31   1.0000      -3.206272       -87.2471
  32   1.0000      -3.206090       -87.2421
  33   1.0000      -1.453650       -39.5558
  34   1.0000      -1.135830       -30.9075
  35   1.0000      -1.098048       -29.8794
  36   1.0000      -1.063876       -28.9496
  37   1.0000      -1.058179       -28.7945
  38   1.0000      -1.055536       -28.7226
  39   1.0000      -1.025327       -27.9006
  40   1.0000      -1.007407       -27.4129
  41   1.0000      -0.964756       -26.2523
  42   1.0000      -0.939372       -25.5616
  43   1.0000      -0.923761       -25.1368
  44   1.0000      -0.923678       -25.1346
  45   1.0000      -0.913310       -24.8524
  46   1.0000      -0.912679       -24.8353
  47   1.0000      -0.903141       -24.5757
  48   1.0000      -0.808588       -22.0028
  49   1.0000      -0.736403       -20.0386
  50   1.0000      -0.706411       -19.2224
  51   1.0000      -0.697269       -18.9736
  52   1.0000      -0.686155       -18.6712
  53   1.0000      -0.661144       -17.9906
  54   1.0000      -0.627353       -17.0711
  55   1.0000      -0.621581       -16.9141
  56   1.0000      -0.604548       -16.4506
  57   1.0000      -0.598844       -16.2954
  58   1.0000      -0.584760       -15.9121
  59   1.0000      -0.576600       -15.6901
  60   1.0000      -0.561592       -15.2817
  61   1.0000      -0.554767       -15.0960
  62   1.0000      -0.549814       -14.9612
  63   1.0000      -0.545163       -14.8346
  64   1.0000      -0.534711       -14.5502
  65   1.0000      -0.529359       -14.4046
  66   1.0000      -0.500308       -13.6141
  67   1.0000      -0.498116       -13.5544
  68   1.0000      -0.474657       -12.9161
  69   1.0000      -0.472794       -12.8654
  70   1.0000      -0.443778       -12.0758
  71   1.0000      -0.438238       -11.9251
  72   1.0000      -0.436523       -11.8784
  73   1.0000      -0.427790       -11.6408
  74   1.0000      -0.426750       -11.6125
  75   1.0000      -0.425663       -11.5829
  76   1.0000      -0.363773        -9.8988
  77   0.0000       0.012464         0.3392
  78   0.0000       0.023111         0.6289
  79   0.0000       0.023756         0.6464
  80   0.0000       0.030450         0.8286
  81   0.0000       0.039057         1.0628

                 SPIN DOWN ORBITALS
  NO   OCC          E(Eh)            E(eV)
   0   1.0000    -261.568498     -7117.6407
   1   1.0000    -104.789705     -2851.4729
   2   1.0000    -104.786396     -2851.3828
   3   1.0000    -104.784912     -2851.3424
   4   1.0000     -32.077800      -872.8813
   5   1.0000     -27.555707      -749.8289
   6   1.0000     -27.555670      -749.8279
   7   1.0000     -27.555507      -749.8235
   8   1.0000     -20.603352      -560.6457
   9   1.0000     -11.419863      -310.7503
  10   1.0000     -11.281122      -306.9749
  11   1.0000     -11.274785      -306.8025
  12   1.0000     -11.268720      -306.6375
  13   1.0000     -11.249417      -306.1122
  14   1.0000     -11.247923      -306.0716
  15   1.0000     -11.241431      -305.8949
  16   1.0000     -11.234042      -305.6938
  17   1.0000     -10.516302      -286.1631
  18   1.0000     -10.512966      -286.0723
  19   1.0000     -10.511441      -286.0309
  20   1.0000      -7.982208      -217.2069
  21   1.0000      -7.981521      -217.1882
  22   1.0000      -7.981473      -217.1869
  23   1.0000      -7.978846      -217.1154
  24   1.0000      -7.978177      -217.0972
  25   1.0000      -7.978085      -217.0947
  26   1.0000      -7.977428      -217.0769
  27   1.0000      -7.976567      -217.0534
  28   1.0000      -7.976485      -217.0512
  29   1.0000      -4.152599      -112.9980
  30   1.0000      -2.674181       -72.7682
  31   1.0000      -2.674150       -72.7673
  32   1.0000      -2.673607       -72.7526
  33   1.0000      -1.444353       -39.3028
  34   1.0000      -1.135435       -30.8968
  35   1.0000      -1.095589       -29.8125
  36   1.0000      -1.048575       -28.5332
  37   1.0000      -1.036144       -28.1949
  38   1.0000      -1.033225       -28.1155
  39   1.0000      -1.024836       -27.8872
  40   1.0000      -1.006658       -27.3926
  41   1.0000      -0.964634       -26.2490
  42   1.0000      -0.903447       -24.5840
  43   1.0000      -0.821542       -22.3553
  44   1.0000      -0.736479       -20.0406
  45   1.0000      -0.708896       -19.2900
  46   1.0000      -0.696419       -18.9505
  47   1.0000      -0.685301       -18.6480
  48   1.0000      -0.661039       -17.9878
  49   1.0000      -0.627279       -17.0691
  50   1.0000      -0.621059       -16.8999
  51   1.0000      -0.604187       -16.4408
  52   1.0000      -0.598777       -16.2935
  53   1.0000      -0.584506       -15.9052
  54   1.0000      -0.575634       -15.6638
  55   1.0000      -0.560871       -15.2621
  56   1.0000      -0.554696       -15.0940
  57   1.0000      -0.547538       -14.8993
  58   1.0000      -0.545075       -14.8322
  59   1.0000      -0.532005       -14.4766
  60   1.0000      -0.520346       -14.1593
  61   1.0000      -0.500597       -13.6219
  62   1.0000      -0.498673       -13.5696
  63   1.0000      -0.482316       -13.1245
  64   1.0000      -0.480187       -13.0666
  65   1.0000      -0.451288       -12.2802
  66   1.0000      -0.448396       -12.2015
  67   1.0000      -0.445666       -12.1272
  68   1.0000      -0.429535       -11.6882
  69   1.0000      -0.426773       -11.6131
  70   1.0000      -0.411277       -11.1914
  71   1.0000      -0.362818        -9.8728
  72   0.0000       0.012449         0.3388
  73   0.0000       0.023086         0.6282
  74   0.0000       0.023730         0.6457
  75   0.0000       0.030381         0.8267
  76   0.0000       0.038914         1.0589

E(0)                                       ...  -3028.451984712
E(0)                                       ...  -3028.451984712
E(CORR)(strong-pairs)                      ...     -2.870774722
E(CORR)(weak-pairs)                        ...     -0.035922987
E(CORR)(corrected)                         ...     -2.906697709
E(TOT)                                     ...  -3031.358682421
E(CCSD(T))                                 ...  -3031.477446965
FINAL SINGLE POINT ENERGY     -3031.477446964925

DIPOLE MOMENT
-------------
                                X             Y             Z
Electronic contribution:     42.66715       3.90430       1.83774
Nuclear contribution   :    -46.24659      -5.03495      -2.46885
                        -----------------------------------------
Total Dipole Moment    :     -3.57944      -1.13065      -0.63110
                        -----------------------------------------
Magnitude (a.u.)       :      3.80645
Magnitude (Debye)      :      9.67522

Rotational constants in cm-1:     0.019004     0.011019     0.010381
Rotational constants in MHz :   569.715517   330.352049   311.216256

                             ****ORCA TERMINATED NORMALLY****
TOTAL RUN TIME: 0 days 18 hours 33 minutes 7 seconds 373 msec
