                         Program Version 4.1.2  - RELEASE  -
|  1> ! aug-cc-pVTZ aug-cc-pVTZ/C DLPNO-CCSD(T1) TightSCF NormalPNO UNO MiniPrint AutoAux
|  2> %pal nproc 10 end
|  3> %maxcore 20000
|  4> %mdci
|  5>      density none
|  6> end
|  7>
|  8> * xyz 0 6
|  9>  O     -0.33309500     -0.16280000     -0.55359900
| 10>  C     -1.18913400     -1.12979000     -0.39530200
| 11>  C     -2.67853400     -0.36263600      0.69701800
| 12>  C     -2.81164700      0.78812600     -0.06116500
| 13>  C     -3.72128800      0.85009600     -1.24406400
| 14> Fe      1.47206800      0.16854500     -0.06326600
| 15> Cl      1.83874200      2.15780300     -0.91561600
| 16>  C     -2.00835000      1.99983700      0.21282600
| 17> Cl      2.59976200     -1.49445900     -0.94890500
| 18> Cl      1.57071700      0.17797500      2.14401200
| 19>  H     -3.41148900     -1.14289700      0.49374700
| 20>  H     -2.44021000      2.89515300     -0.24101400
| 21>  H     -1.81980900      2.16561500      1.27539200
| 22>  H     -1.02384500      1.83000300     -0.25883200
| 23>  H     -4.50430200      1.59190100     -1.03306300
| 24>  H     -3.18855500      1.21475700     -2.13172900
| 25>  H     -4.20429100     -0.10236200     -1.46779100
| 26>  C     -2.18168900     -0.28914200      2.12981900
| 27>  H     -2.84086100      0.36232300      2.71551800
| 28>  H     -2.19543200     -1.27423200      2.59906900
| 29>  H     -1.16571400      0.10589600      2.20234900
| 30>  C     -0.77492000     -2.26868500      0.52543900
| 31>  H     -1.60309700     -2.94425100      0.75258900
| 32>  H     -0.00944900     -2.82855600     -0.02734200
| 33>  H     -0.31508000     -1.90916800      1.44501500
| 34>  C     -1.83122300     -1.60777200     -1.68778100
| 35>  H     -1.08054900     -2.23131500     -2.18814900
| 36>  H     -2.72262700     -2.21741900     -1.51868800
| 37>  H     -2.05973500     -0.77783100     -2.35543000
| 38> *
| 39>
| 40>
| 41>                          ****END OF INPUT****

CARTESIAN COORDINATES (ANGSTROEM)
---------------------------------
  O     -0.333095   -0.162800   -0.553599
  C     -1.189134   -1.129790   -0.395302
  C     -2.678534   -0.362636    0.697018
  C     -2.811647    0.788126   -0.061165
  C     -3.721288    0.850096   -1.244064
  Fe     1.472068    0.168545   -0.063266
  Cl     1.838742    2.157803   -0.915616
  C     -2.008350    1.999837    0.212826
  Cl     2.599762   -1.494459   -0.948905
  Cl     1.570717    0.177975    2.144012
  H     -3.411489   -1.142897    0.493747
  H     -2.440210    2.895153   -0.241014
  H     -1.819809    2.165615    1.275392
  H     -1.023845    1.830003   -0.258832
  H     -4.504302    1.591901   -1.033063
  H     -3.188555    1.214757   -2.131729
  H     -4.204291   -0.102362   -1.467791
  C     -2.181689   -0.289142    2.129819
  H     -2.840861    0.362323    2.715518
  H     -2.195432   -1.274232    2.599069
  H     -1.165714    0.105896    2.202349
  C     -0.774920   -2.268685    0.525439
  H     -1.603097   -2.944251    0.752589
  H     -0.009449   -2.828556   -0.027342
  H     -0.315080   -1.909168    1.445015
  C     -1.831223   -1.607772   -1.687781
  H     -1.080549   -2.231315   -2.188149
  H     -2.722627   -2.217419   -1.518688
  H     -2.059735   -0.777831   -2.355430

ORBITAL ENERGIES
----------------
                 SPIN UP ORBITALS
  NO   OCC          E(Eh)            E(eV)
   0   1.0000    -261.554454     -7117.2585
   1   1.0000    -104.778726     -2851.1741
   2   1.0000    -104.775763     -2851.0935
   3   1.0000    -104.775463     -2851.0853
   4   1.0000     -32.222335      -876.8143
   5   1.0000     -27.698443      -753.7130
   6   1.0000     -27.697895      -753.6981
   7   1.0000     -27.697713      -753.6931
   8   1.0000     -20.566615      -559.6460
   9   1.0000     -11.391891      -309.9891
  10   1.0000     -11.344288      -308.6938
  11   1.0000     -11.280118      -306.9476
  12   1.0000     -11.275082      -306.8106
  13   1.0000     -11.259050      -306.3743
  14   1.0000     -11.257131      -306.3221
  15   1.0000     -11.252924      -306.2076
  16   1.0000     -11.247813      -306.0686
  17   1.0000     -10.505360      -285.8654
  18   1.0000     -10.502396      -285.7847
  19   1.0000     -10.502049      -285.7753
  20   1.0000      -7.972226      -216.9353
  21   1.0000      -7.971406      -216.9130
  22   1.0000      -7.971371      -216.9120
  23   1.0000      -7.969241      -216.8541
  24   1.0000      -7.968869      -216.8439
  25   1.0000      -7.968497      -216.8338
  26   1.0000      -7.968423      -216.8318
  27   1.0000      -7.968160      -216.8247
  28   1.0000      -7.968075      -216.8224
  29   1.0000      -4.577637      -124.5638
  30   1.0000      -3.190412       -86.8155
  31   1.0000      -3.189511       -86.7910
  32   1.0000      -3.189119       -86.7803
  33   1.0000      -1.410010       -38.3683
  34   1.0000      -1.172699       -31.9108
  35   1.0000      -1.083090       -29.4724
  36   1.0000      -1.050258       -28.5790
  37   1.0000      -1.045200       -28.4413
  38   1.0000      -1.042618       -28.3711
  39   1.0000      -1.041260       -28.3341
  40   1.0000      -0.996866       -27.1261
  41   1.0000      -0.985411       -26.8144
  42   1.0000      -0.926789       -25.2192
  43   1.0000      -0.918534       -24.9946
  44   1.0000      -0.906981       -24.6802
  45   1.0000      -0.906942       -24.6792
  46   1.0000      -0.897605       -24.4251
  47   1.0000      -0.897127       -24.4121
  48   1.0000      -0.791029       -21.5250
  49   1.0000      -0.763623       -20.7792
  50   1.0000      -0.693795       -18.8791
  51   1.0000      -0.689734       -18.7686
  52   1.0000      -0.674073       -18.3425
  53   1.0000      -0.665664       -18.1136
  54   1.0000      -0.651257       -17.7216
  55   1.0000      -0.625731       -17.0270
  56   1.0000      -0.600971       -16.3533
  57   1.0000      -0.597238       -16.2517
  58   1.0000      -0.585791       -15.9402
  59   1.0000      -0.577790       -15.7225
  60   1.0000      -0.570896       -15.5349
  61   1.0000      -0.568093       -15.4586
  62   1.0000      -0.555547       -15.1172
  63   1.0000      -0.545308       -14.8386
  64   1.0000      -0.531783       -14.4706
  65   1.0000      -0.524442       -14.2708
  66   1.0000      -0.515570       -14.0294
  67   1.0000      -0.478589       -13.0231
  68   1.0000      -0.464461       -12.6386
  69   1.0000      -0.455257       -12.3882
  70   1.0000      -0.430596       -11.7171
  71   1.0000      -0.427916       -11.6442
  72   1.0000      -0.424982       -11.5643
  73   1.0000      -0.416700       -11.3390
  74   1.0000      -0.415063       -11.2944
  75   1.0000      -0.414492       -11.2789
  76   1.0000      -0.387496       -10.5443
  77   0.0000       0.008153         0.2218
  78   0.0000       0.019734         0.5370
  79   0.0000       0.021232         0.5778
  80   0.0000       0.023941         0.6515
  81   0.0000       0.031343         0.8529

                 SPIN DOWN ORBITALS
  NO   OCC          E(Eh)            E(eV)
   0   1.0000    -261.550897     -7117.1617
   1   1.0000    -104.777315     -2851.1357
   2   1.0000    -104.774299     -2851.0536
   3   1.0000    -104.774032     -2851.0464
   4   1.0000     -32.060274      -872.4044
   5   1.0000     -27.538269      -749.3544
   6   1.0000     -27.538161      -749.3514
   7   1.0000     -27.537820      -749.3422
   8   1.0000     -20.561919      -559.5183
   9   1.0000     -11.391873      -309.9886
  10   1.0000     -11.344016      -308.6864
  11   1.0000     -11.280156      -306.9486
  12   1.0000     -11.275046      -306.8096
  13   1.0000     -11.258941      -306.3714
  14   1.0000     -11.257182      -306.3235
  15   1.0000     -11.252908      -306.2072
  16   1.0000     -11.247826      -306.0689
  17   1.0000     -10.503846      -285.8242
  18   1.0000     -10.500830      -285.7421
  19   1.0000     -10.500521      -285.7337
  20   1.0000      -7.969729      -216.8674
  21   1.0000      -7.969144      -216.8514
  22   1.0000      -7.969072      -216.8495
  23   1.0000      -7.966761      -216.7866
  24   1.0000      -7.966485      -216.7791
  25   1.0000      -7.966072      -216.7678
  26   1.0000      -7.965987      -216.7655
  27   1.0000      -7.965767      -216.7595
  28   1.0000      -7.965668      -216.7569
  29   1.0000      -4.135349      -112.5286
  30   1.0000      -2.657100       -72.3034
  31   1.0000      -2.657047       -72.3019
  32   1.0000      -2.656277       -72.2810
  33   1.0000      -1.398052       -38.0429
  34   1.0000      -1.171669       -31.8827
  35   1.0000      -1.080409       -29.3994
  36   1.0000      -1.041781       -28.3483
  37   1.0000      -1.035136       -28.1675
  38   1.0000      -1.023588       -27.8532
  39   1.0000      -1.021691       -27.8016
  40   1.0000      -0.996798       -27.1243
  41   1.0000      -0.984649       -26.7937
  42   1.0000      -0.923047       -25.1174
  43   1.0000      -0.804389       -21.8885
  44   1.0000      -0.764373       -20.7996
  45   1.0000      -0.694879       -18.9086
  46   1.0000      -0.689240       -18.7552
  47   1.0000      -0.675399       -18.3786
  48   1.0000      -0.664930       -18.0937
  49   1.0000      -0.650889       -17.7116
  50   1.0000      -0.625192       -17.0123
  51   1.0000      -0.600447       -16.3390
  52   1.0000      -0.596990       -16.2449
  53   1.0000      -0.585591       -15.9347
  54   1.0000      -0.577452       -15.7133
  55   1.0000      -0.570953       -15.5364
  56   1.0000      -0.567372       -15.4390
  57   1.0000      -0.555342       -15.1116
  58   1.0000      -0.544673       -14.8213
  59   1.0000      -0.529024       -14.3955
  60   1.0000      -0.523000       -14.2316
  61   1.0000      -0.506797       -13.7906
  62   1.0000      -0.476660       -12.9706
  63   1.0000      -0.468735       -12.7549
  64   1.0000      -0.465003       -12.6534
  65   1.0000      -0.439751       -11.9662
  66   1.0000      -0.436544       -11.8790
  67   1.0000      -0.434568       -11.8252
  68   1.0000      -0.423140       -11.5142
  69   1.0000      -0.414374       -11.2757
  70   1.0000      -0.400621       -10.9014
  71   1.0000      -0.384069       -10.4510
  72   0.0000       0.008155         0.2219
  73   0.0000       0.019694         0.5359
  74   0.0000       0.021240         0.5780
  75   0.0000       0.023635         0.6432
  76   0.0000       0.031146         0.8475

E(0)                                       ...  -3028.428872800
E(0)                                       ...  -3028.428872800
E(CORR)(strong-pairs)                      ...     -2.875511698
E(CORR)(weak-pairs)                        ...     -0.035873969
E(CORR)(corrected)                         ...     -2.911385667
E(TOT)                                     ...  -3031.340258467
E(CCSD(T))                                 ...  -3031.460786086
FINAL SINGLE POINT ENERGY     -3031.460786086394

DIPOLE MOMENT
-------------
                                X             Y             Z
Electronic contribution:     42.25695       6.23838      -0.35409
Nuclear contribution   :    -47.03910      -6.85402       0.09164
                        -----------------------------------------
Total Dipole Moment    :     -4.78216      -0.61564      -0.26245
                        -----------------------------------------
Magnitude (a.u.)       :      4.82876
Magnitude (Debye)      :     12.27373

Rotational constants in cm-1:     0.019380     0.010718     0.010174
Rotational constants in MHz :   580.998333   321.312051   305.020673

                             ****ORCA TERMINATED NORMALLY****
TOTAL RUN TIME: 0 days 22 hours 43 minutes 56 seconds 320 msec
