                         Program Version 4.1.2  - RELEASE  -
|  1> ! aug-cc-pVTZ aug-cc-pVTZ/C DLPNO-CCSD(T1) TightSCF NormalPNO UNO MiniPrint AutoAux
|  2> %pal nproc 10 end
|  3> %maxcore 20000
|  4> %mdci
|  5>      density none
|  6> end
|  7>
|  8> * xyz 0 6
|  9>  O     -0.29690000     -0.18991200     -0.46843400
| 10>  C     -1.14010100     -1.13033000     -0.21099900
| 11>  C     -2.66043300     -0.20045200      0.89982000
| 12>  C     -3.09456500      0.66255400     -0.08253900
| 13>  C     -4.20621900      0.30943000     -1.01682600
| 14> Fe      1.54783100      0.17455900     -0.10366200
| 15> Cl      1.87888400      2.09549300     -1.09691600
| 16>  C     -2.40367800      1.96285600     -0.30084700
| 17> Cl      2.54667700     -1.57226300     -0.98394300
| 18> Cl      1.83600400      0.27994000      2.07651900
| 19>  H     -3.26724100     -1.09271300      1.04972500
| 20>  H     -2.90072100      2.58317800     -1.04988800
| 21>  H     -2.28994500      2.53178600      0.62785500
| 22>  H     -1.37914100      1.74069900     -0.64861200
| 23>  H     -5.03893400      1.00550500     -0.84246800
| 24>  H     -3.90953700      0.44759200     -2.06407800
| 25>  H     -4.57708000     -0.70785300     -0.87409100
| 26>  C     -1.90974900      0.31202200      2.11277200
| 27>  H     -2.49096400      1.09906300      2.60759100
| 28>  H     -1.74771600     -0.48246800      2.84277400
| 29>  H     -0.93512700      0.73192400      1.85400000
| 30>  C     -0.74852800     -2.14474900      0.84849400
| 31>  H     -1.58577800     -2.77213800      1.16112000
| 32>  H      0.00628700     -2.78508400      0.37162400
| 33>  H     -0.27646800     -1.67581700      1.71087100
| 34>  C     -1.83658200     -1.71557700     -1.42147500
| 35>  H     -1.11556400     -2.39885700     -1.88828800
| 36>  H     -2.72911400     -2.28826200     -1.15942600
| 37>  H     -2.07882500     -0.94422300     -2.15268000
| 38> *
| 39>
| 40>
| 41>                          ****END OF INPUT****

CARTESIAN COORDINATES (ANGSTROEM)
---------------------------------
  O     -0.296900   -0.189912   -0.468434
  C     -1.140101   -1.130330   -0.210999
  C     -2.660433   -0.200452    0.899820
  C     -3.094565    0.662554   -0.082539
  C     -4.206219    0.309430   -1.016826
  Fe     1.547831    0.174559   -0.103662
  Cl     1.878884    2.095493   -1.096916
  C     -2.403678    1.962856   -0.300847
  Cl     2.546677   -1.572263   -0.983943
  Cl     1.836004    0.279940    2.076519
  H     -3.267241   -1.092713    1.049725
  H     -2.900721    2.583178   -1.049888
  H     -2.289945    2.531786    0.627855
  H     -1.379141    1.740699   -0.648612
  H     -5.038934    1.005505   -0.842468
  H     -3.909537    0.447592   -2.064078
  H     -4.577080   -0.707853   -0.874091
  C     -1.909749    0.312022    2.112772
  H     -2.490964    1.099063    2.607591
  H     -1.747716   -0.482468    2.842774
  H     -0.935127    0.731924    1.854000
  C     -0.748528   -2.144749    0.848494
  H     -1.585778   -2.772138    1.161120
  H      0.006287   -2.785084    0.371624
  H     -0.276468   -1.675817    1.710871
  C     -1.836582   -1.715577   -1.421475
  H     -1.115564   -2.398857   -1.888288
  H     -2.729114   -2.288262   -1.159426
  H     -2.078825   -0.944223   -2.152680

ORBITAL ENERGIES
----------------
                 SPIN UP ORBITALS
  NO   OCC          E(Eh)            E(eV)
   0   1.0000    -261.558736     -7117.3750
   1   1.0000    -104.780400     -2851.2196
   2   1.0000    -104.778008     -2851.1545
   3   1.0000    -104.777080     -2851.1293
   4   1.0000     -32.226558      -876.9292
   5   1.0000     -27.702820      -753.8321
   6   1.0000     -27.702017      -753.8102
   7   1.0000     -27.701876      -753.8064
   8   1.0000     -20.581979      -560.0641
   9   1.0000     -11.402324      -310.2730
  10   1.0000     -11.327114      -308.2265
  11   1.0000     -11.275078      -306.8105
  12   1.0000     -11.268680      -306.6364
  13   1.0000     -11.264588      -306.5250
  14   1.0000     -11.259299      -306.3811
  15   1.0000     -11.255476      -306.2771
  16   1.0000     -11.244842      -305.9877
  17   1.0000     -10.507061      -285.9117
  18   1.0000     -10.504644      -285.8459
  19   1.0000     -10.503679      -285.8196
  20   1.0000      -7.973912      -216.9812
  21   1.0000      -7.973117      -216.9596
  22   1.0000      -7.973096      -216.9590
  23   1.0000      -7.971515      -216.9159
  24   1.0000      -7.970743      -216.8949
  25   1.0000      -7.970660      -216.8927
  26   1.0000      -7.970489      -216.8880
  27   1.0000      -7.969810      -216.8696
  28   1.0000      -7.969720      -216.8671
  29   1.0000      -4.581758      -124.6760
  30   1.0000      -3.194752       -86.9336
  31   1.0000      -3.193423       -86.8975
  32   1.0000      -3.193158       -86.8903
  33   1.0000      -1.423320       -38.7305
  34   1.0000      -1.163809       -31.6689
  35   1.0000      -1.084957       -29.5232
  36   1.0000      -1.052544       -28.6412
  37   1.0000      -1.047287       -28.4981
  38   1.0000      -1.044820       -28.4310
  39   1.0000      -1.037824       -28.2406
  40   1.0000      -0.992632       -27.0109
  41   1.0000      -0.990920       -26.9643
  42   1.0000      -0.927720       -25.2445
  43   1.0000      -0.915948       -24.9242
  44   1.0000      -0.910983       -24.7891
  45   1.0000      -0.910902       -24.7869
  46   1.0000      -0.900964       -24.5165
  47   1.0000      -0.900576       -24.5059
  48   1.0000      -0.796199       -21.6657
  49   1.0000      -0.758052       -20.6277
  50   1.0000      -0.691087       -18.8054
  51   1.0000      -0.683838       -18.6082
  52   1.0000      -0.680349       -18.5132
  53   1.0000      -0.675152       -18.3718
  54   1.0000      -0.647312       -17.6143
  55   1.0000      -0.624719       -16.9995
  56   1.0000      -0.604285       -16.4434
  57   1.0000      -0.596052       -16.2194
  58   1.0000      -0.583553       -15.8793
  59   1.0000      -0.578792       -15.7497
  60   1.0000      -0.569846       -15.5063
  61   1.0000      -0.564497       -15.3607
  62   1.0000      -0.559835       -15.2339
  63   1.0000      -0.543762       -14.7965
  64   1.0000      -0.535932       -14.5834
  65   1.0000      -0.520904       -14.1745
  66   1.0000      -0.518091       -14.0980
  67   1.0000      -0.483958       -13.1692
  68   1.0000      -0.466103       -12.6833
  69   1.0000      -0.458826       -12.4853
  70   1.0000      -0.433803       -11.8044
  71   1.0000      -0.429134       -11.6773
  72   1.0000      -0.426618       -11.6089
  73   1.0000      -0.418407       -11.3854
  74   1.0000      -0.416745       -11.3402
  75   1.0000      -0.416005       -11.3201
  76   1.0000      -0.381250       -10.3743
  77   0.0000       0.008726         0.2375
  78   0.0000       0.020316         0.5528
  79   0.0000       0.021154         0.5756
  80   0.0000       0.026354         0.7171
  81   0.0000       0.033277         0.9055

                 SPIN DOWN ORBITALS
  NO   OCC          E(Eh)            E(eV)
   0   1.0000    -261.555172     -7117.2781
   1   1.0000    -104.778946     -2851.1801
   2   1.0000    -104.776527     -2851.1143
   3   1.0000    -104.775604     -2851.0891
   4   1.0000     -32.064494      -872.5192
   5   1.0000     -27.542453      -749.4682
   6   1.0000     -27.542387      -749.4665
   7   1.0000     -27.542108      -749.4589
   8   1.0000     -20.577933      -559.9540
   9   1.0000     -11.402252      -310.2710
  10   1.0000     -11.326348      -308.2056
  11   1.0000     -11.275179      -306.8132
  12   1.0000     -11.269071      -306.6470
  13   1.0000     -11.264487      -306.5223
  14   1.0000     -11.259313      -306.3815
  15   1.0000     -11.255569      -306.2796
  16   1.0000     -11.244817      -305.9870
  17   1.0000     -10.505504      -285.8693
  18   1.0000     -10.503060      -285.8028
  19   1.0000     -10.502105      -285.7768
  20   1.0000      -7.971405      -216.9130
  21   1.0000      -7.970746      -216.8950
  22   1.0000      -7.970686      -216.8934
  23   1.0000      -7.968961      -216.8464
  24   1.0000      -7.968312      -216.8288
  25   1.0000      -7.968215      -216.8262
  26   1.0000      -7.968082      -216.8225
  27   1.0000      -7.967307      -216.8014
  28   1.0000      -7.967209      -216.7988
  29   1.0000      -4.139458      -112.6404
  30   1.0000      -2.661123       -72.4128
  31   1.0000      -2.661054       -72.4110
  32   1.0000      -2.660504       -72.3960
  33   1.0000      -1.412969       -38.4488
  34   1.0000      -1.162341       -31.6289
  35   1.0000      -1.082427       -29.4543
  36   1.0000      -1.039417       -28.2840
  37   1.0000      -1.036292       -28.1989
  38   1.0000      -1.025248       -27.8984
  39   1.0000      -1.023370       -27.8473
  40   1.0000      -0.992283       -27.0014
  41   1.0000      -0.990607       -26.9558
  42   1.0000      -0.916348       -24.9351
  43   1.0000      -0.810846       -22.0642
  44   1.0000      -0.758207       -20.6319
  45   1.0000      -0.693648       -18.8751
  46   1.0000      -0.683962       -18.6116
  47   1.0000      -0.680078       -18.5059
  48   1.0000      -0.674285       -18.3482
  49   1.0000      -0.647203       -17.6113
  50   1.0000      -0.623862       -16.9762
  51   1.0000      -0.603935       -16.4339
  52   1.0000      -0.595640       -16.2082
  53   1.0000      -0.583452       -15.8765
  54   1.0000      -0.578768       -15.7491
  55   1.0000      -0.569201       -15.4888
  56   1.0000      -0.564483       -15.3604
  57   1.0000      -0.559780       -15.2324
  58   1.0000      -0.542794       -14.7702
  59   1.0000      -0.533839       -14.5265
  60   1.0000      -0.520730       -14.1698
  61   1.0000      -0.508928       -13.8486
  62   1.0000      -0.482168       -13.1205
  63   1.0000      -0.470836       -12.8121
  64   1.0000      -0.469236       -12.7686
  65   1.0000      -0.441636       -12.0175
  66   1.0000      -0.438464       -11.9312
  67   1.0000      -0.436343       -11.8735
  68   1.0000      -0.422645       -11.5007
  69   1.0000      -0.416483       -11.3331
  70   1.0000      -0.401717       -10.9313
  71   1.0000      -0.379581       -10.3289
  72   0.0000       0.008727         0.2375
  73   0.0000       0.020312         0.5527
  74   0.0000       0.021205         0.5770
  75   0.0000       0.026189         0.7126
  76   0.0000       0.032711         0.8901

E(0)                                       ...  -3028.435539314
E(0)                                       ...  -3028.435539314
E(CORR)(strong-pairs)                      ...     -2.874124652
E(CORR)(weak-pairs)                        ...     -0.035592413
E(CORR)(corrected)                         ...     -2.909717064
E(TOT)                                     ...  -3031.345256379
E(CCSD(T))                                 ...  -3031.465716390
FINAL SINGLE POINT ENERGY     -3031.465716389520

DIPOLE MOMENT
-------------
                                X             Y             Z
Electronic contribution:     44.61045       5.71956      -1.92206
Nuclear contribution   :    -49.33340      -6.57858       1.87066
                        -----------------------------------------
Total Dipole Moment    :     -4.72295      -0.85903      -0.05140
                        -----------------------------------------
Magnitude (a.u.)       :      4.80071
Magnitude (Debye)      :     12.20244

Rotational constants in cm-1:     0.019936     0.009977     0.009555
Rotational constants in MHz :   597.660881   299.096084   286.466633

                             ****ORCA TERMINATED NORMALLY****
TOTAL RUN TIME: 0 days 18 hours 13 minutes 24 seconds 382 msec
