                         Program Version 4.1.2  - RELEASE  -
|  1> ! aug-cc-pVTZ aug-cc-pVTZ/C DLPNO-CCSD(T1) TightSCF NormalPNO UNO MiniPrint AutoAux
|  2> %pal nproc 10 end
|  3> %maxcore 20000
|  4> %mdci
|  5>      density none
|  6> end
|  7>
|  8> * xyz 0 6
|  9>  O      0.21191700      0.34016400     -0.85920000
| 10>  C      1.03183500      1.27752000     -0.66967100
| 11>  C      2.98396400      0.18057300      0.55033300
| 12>  C      2.65470600     -0.93724300     -0.13569900
| 13>  C      3.18978600     -1.20431600     -1.51438000
| 14> Fe     -1.47697000     -0.15741200      0.00212300
| 15> Cl     -2.04928000     -2.01831100     -0.97179200
| 16>  C      1.73952900     -2.00093900      0.39053000
| 17> Cl     -2.71588400      1.58794700     -0.45498300
| 18> Cl     -1.10601700     -0.36503800      2.15858500
| 19>  H      3.70426200      0.85354600      0.08575600
| 20>  H      2.27203800     -2.95978100      0.44277300
| 21>  H      1.33060900     -1.78134100      1.37611600
| 22>  H      0.90176000     -2.15393100     -0.30268900
| 23>  H      3.73658200     -2.15609500     -1.52204200
| 24>  H      2.36927800     -1.31594100     -2.23602800
| 25>  H      3.87066800     -0.42251800     -1.86139000
| 26>  C      2.73175000      0.41848700      2.01789800
| 27>  H      3.50890200     -0.07984100      2.61279900
| 28>  H      2.78054500      1.48221300      2.26647900
| 29>  H      1.76557300      0.03659800      2.35582600
| 30>  C      0.82836800      2.24579900      0.45612600
| 31>  H      1.71313000      2.85460000      0.64467300
| 32>  H      0.01193900      2.90763100      0.13016300
| 33>  H      0.49732600      1.75052800      1.36866600
| 34>  C      1.84402900      1.73143100     -1.84843300
| 35>  H      1.22396900      2.47840500     -2.36546800
| 36>  H      2.77564200      2.21639900     -1.55458500
| 37>  H      2.02994100      0.91487900     -2.54363600
| 38> *
| 39>
| 40>
| 41>                          ****END OF INPUT****

CARTESIAN COORDINATES (ANGSTROEM)
---------------------------------
  O      0.211917    0.340164   -0.859200
  C      1.031835    1.277520   -0.669671
  C      2.983964    0.180573    0.550333
  C      2.654706   -0.937243   -0.135699
  C      3.189786   -1.204316   -1.514380
  Fe    -1.476970   -0.157412    0.002123
  Cl    -2.049280   -2.018311   -0.971792
  C      1.739529   -2.000939    0.390530
  Cl    -2.715884    1.587947   -0.454983
  Cl    -1.106017   -0.365038    2.158585
  H      3.704262    0.853546    0.085756
  H      2.272038   -2.959781    0.442773
  H      1.330609   -1.781341    1.376116
  H      0.901760   -2.153931   -0.302689
  H      3.736582   -2.156095   -1.522042
  H      2.369278   -1.315941   -2.236028
  H      3.870668   -0.422518   -1.861390
  C      2.731750    0.418487    2.017898
  H      3.508902   -0.079841    2.612799
  H      2.780545    1.482213    2.266479
  H      1.765573    0.036598    2.355826
  C      0.828368    2.245799    0.456126
  H      1.713130    2.854600    0.644673
  H      0.011939    2.907631    0.130163
  H      0.497326    1.750528    1.368666
  C      1.844029    1.731431   -1.848433
  H      1.223969    2.478405   -2.365468
  H      2.775642    2.216399   -1.554585
  H      2.029941    0.914879   -2.543636

ORBITAL ENERGIES
----------------
                 SPIN UP ORBITALS
  NO   OCC          E(Eh)            E(eV)
   0   1.0000    -261.573871     -7117.7869
   1   1.0000    -104.792833     -2851.5579
   2   1.0000    -104.789352     -2851.4632
   3   1.0000    -104.787330     -2851.4082
   4   1.0000     -32.241605      -877.3387
   5   1.0000     -27.718044      -754.2463
   6   1.0000     -27.716973      -754.2172
   7   1.0000     -27.716774      -754.2118
   8   1.0000     -20.615601      -560.9790
   9   1.0000     -11.420849      -310.7771
  10   1.0000     -11.276471      -306.8484
  11   1.0000     -11.273503      -306.7676
  12   1.0000     -11.271140      -306.7033
  13   1.0000     -11.246859      -306.0426
  14   1.0000     -11.246322      -306.0280
  15   1.0000     -11.237464      -305.7869
  16   1.0000     -11.231763      -305.6318
  17   1.0000     -10.519544      -286.2514
  18   1.0000     -10.516036      -286.1559
  19   1.0000     -10.513966      -286.0995
  20   1.0000      -7.986381      -217.3205
  21   1.0000      -7.985617      -217.2997
  22   1.0000      -7.985571      -217.2984
  23   1.0000      -7.982909      -217.2260
  24   1.0000      -7.982134      -217.2049
  25   1.0000      -7.982080      -217.2034
  26   1.0000      -7.980759      -217.1675
  27   1.0000      -7.980094      -217.1494
  28   1.0000      -7.980042      -217.1480
  29   1.0000      -4.596522      -125.0777
  30   1.0000      -3.209639       -87.3387
  31   1.0000      -3.207966       -87.2932
  32   1.0000      -3.207795       -87.2885
  33   1.0000      -1.459460       -39.7139
  34   1.0000      -1.130568       -30.7643
  35   1.0000      -1.099176       -29.9101
  36   1.0000      -1.065665       -28.9982
  37   1.0000      -1.059813       -28.8390
  38   1.0000      -1.056767       -28.7561
  39   1.0000      -1.023066       -27.8390
  40   1.0000      -1.008515       -27.4431
  41   1.0000      -0.961552       -26.1652
  42   1.0000      -0.941239       -25.6124
  43   1.0000      -0.925474       -25.1834
  44   1.0000      -0.925356       -25.1802
  45   1.0000      -0.914853       -24.8944
  46   1.0000      -0.914154       -24.8754
  47   1.0000      -0.898875       -24.4596
  48   1.0000      -0.811857       -22.0917
  49   1.0000      -0.732999       -19.9459
  50   1.0000      -0.709608       -19.3094
  51   1.0000      -0.699706       -19.0400
  52   1.0000      -0.684105       -18.6154
  53   1.0000      -0.657856       -17.9012
  54   1.0000      -0.623882       -16.9767
  55   1.0000      -0.621297       -16.9064
  56   1.0000      -0.605078       -16.4650
  57   1.0000      -0.599075       -16.3017
  58   1.0000      -0.585411       -15.9298
  59   1.0000      -0.577688       -15.7197
  60   1.0000      -0.560915       -15.2633
  61   1.0000      -0.553641       -15.0653
  62   1.0000      -0.546760       -14.8781
  63   1.0000      -0.542997       -14.7757
  64   1.0000      -0.535883       -14.5821
  65   1.0000      -0.527622       -14.3573
  66   1.0000      -0.501712       -13.6523
  67   1.0000      -0.495837       -13.4924
  68   1.0000      -0.475941       -12.9510
  69   1.0000      -0.474764       -12.9190
  70   1.0000      -0.445472       -12.1219
  71   1.0000      -0.439538       -11.9604
  72   1.0000      -0.437644       -11.9089
  73   1.0000      -0.429059       -11.6753
  74   1.0000      -0.428025       -11.6471
  75   1.0000      -0.426703       -11.6112
  76   1.0000      -0.361797        -9.8450
  77   0.0000       0.012493         0.3399
  78   0.0000       0.023310         0.6343
  79   0.0000       0.024015         0.6535
  80   0.0000       0.030479         0.8294
  81   0.0000       0.039140         1.0650

                 SPIN DOWN ORBITALS
  NO   OCC          E(Eh)            E(eV)
   0   1.0000    -261.570294     -7117.6895
   1   1.0000    -104.791357     -2851.5178
   2   1.0000    -104.787802     -2851.4211
   3   1.0000    -104.785777     -2851.3660
   4   1.0000     -32.079601      -872.9303
   5   1.0000     -27.557516      -749.8781
   6   1.0000     -27.557452      -749.8764
   7   1.0000     -27.557330      -749.8731
   8   1.0000     -20.611989      -560.8807
   9   1.0000     -11.420768      -310.7749
  10   1.0000     -11.276361      -306.8454
  11   1.0000     -11.273502      -306.7676
  12   1.0000     -11.271130      -306.7030
  13   1.0000     -11.246823      -306.0416
  14   1.0000     -11.246322      -306.0280
  15   1.0000     -11.237466      -305.7870
  16   1.0000     -11.231778      -305.6322
  17   1.0000     -10.517967      -286.2084
  18   1.0000     -10.514382      -286.1109
  19   1.0000     -10.512316      -286.0547
  20   1.0000      -7.983881      -217.2525
  21   1.0000      -7.983164      -217.2329
  22   1.0000      -7.983124      -217.2318
  23   1.0000      -7.980270      -217.1542
  24   1.0000      -7.979576      -217.1353
  25   1.0000      -7.979487      -217.1329
  26   1.0000      -7.978303      -217.1007
  27   1.0000      -7.977426      -217.0768
  28   1.0000      -7.977342      -217.0745
  29   1.0000      -4.154402      -113.0470
  30   1.0000      -2.675961       -72.8166
  31   1.0000      -2.675945       -72.8162
  32   1.0000      -2.675449       -72.8027
  33   1.0000      -1.450560       -39.4717
  34   1.0000      -1.130238       -30.7553
  35   1.0000      -1.096744       -29.8439
  36   1.0000      -1.050113       -28.5750
  37   1.0000      -1.037594       -28.2344
  38   1.0000      -1.034200       -28.1420
  39   1.0000      -1.022427       -27.8217
  40   1.0000      -1.007940       -27.4274
  41   1.0000      -0.961459       -26.1626
  42   1.0000      -0.899044       -24.4642
  43   1.0000      -0.825091       -22.4519
  44   1.0000      -0.733073       -19.9479
  45   1.0000      -0.711776       -19.3684
  46   1.0000      -0.698805       -19.0154
  47   1.0000      -0.683452       -18.5977
  48   1.0000      -0.657782       -17.8992
  49   1.0000      -0.623848       -16.9758
  50   1.0000      -0.620759       -16.8917
  51   1.0000      -0.604782       -16.4569
  52   1.0000      -0.598964       -16.2986
  53   1.0000      -0.585120       -15.9219
  54   1.0000      -0.576257       -15.6808
  55   1.0000      -0.560232       -15.2447
  56   1.0000      -0.553443       -15.0599
  57   1.0000      -0.545232       -14.8365
  58   1.0000      -0.542843       -14.7715
  59   1.0000      -0.528833       -14.3903
  60   1.0000      -0.522654       -14.2221
  61   1.0000      -0.503298       -13.6954
  62   1.0000      -0.495797       -13.4913
  63   1.0000      -0.484032       -13.1712
  64   1.0000      -0.481346       -13.0981
  65   1.0000      -0.453013       -12.3271
  66   1.0000      -0.449669       -12.2361
  67   1.0000      -0.446813       -12.1584
  68   1.0000      -0.430651       -11.7186
  69   1.0000      -0.427848       -11.6423
  70   1.0000      -0.412354       -11.2207
  71   1.0000      -0.361092        -9.8258
  72   0.0000       0.012476         0.3395
  73   0.0000       0.023286         0.6336
  74   0.0000       0.023980         0.6525
  75   0.0000       0.030392         0.8270
  76   0.0000       0.039010         1.0615

E(0)                                       ...  -3028.460561948
E(0)                                       ...  -3028.460561948
E(CORR)(strong-pairs)                      ...     -2.868424832
E(CORR)(weak-pairs)                        ...     -0.035965354
E(CORR)(corrected)                         ...     -2.904390186
E(TOT)                                     ...  -3031.364952134
E(CCSD(T))                                 ...  -3031.483232523
FINAL SINGLE POINT ENERGY     -3031.483232523334

DIPOLE MOMENT
-------------
                                X             Y             Z
Electronic contribution:    -43.32842      -4.79792       1.46894
Nuclear contribution   :     46.77555       6.13857      -2.09204
                        -----------------------------------------
Total Dipole Moment    :      3.44714       1.34065      -0.62311
                        -----------------------------------------
Magnitude (a.u.)       :      3.75078
Magnitude (Debye)      :      9.53373

Rotational constants in cm-1:     0.018922     0.010786     0.010149
Rotational constants in MHz :   567.258524   323.354886   304.270880

                             ****ORCA TERMINATED NORMALLY****
TOTAL RUN TIME: 0 days 17 hours 56 minutes 31 seconds 550 msec
