                         Program Version 4.1.2  - RELEASE  -
|  1> ! aug-cc-pVTZ aug-cc-pVTZ/C DLPNO-CCSD(T1) TightSCF NormalPNO UNO MiniPrint AutoAux
|  2> %pal nproc 10 end
|  3> %maxcore 20000
|  4> %mdci
|  5>      density none
|  6> end
|  7>
|  8> * xyz 0 6
|  9>  O     -0.31874000     -0.19672600     -0.70766300
| 10>  C     -1.28021000     -1.11241700     -0.53889800
| 11>  C     -2.69539200     -0.32888300      0.35878500
| 12>  C     -2.44143100      0.97698200     -0.10219600
| 13>  C     -2.91713200      1.45457600     -1.42335900
| 14> Fe      1.39056500      0.11311400     -0.02752700
| 15> Cl      1.86671000      2.13676700     -0.76803400
| 16>  C     -1.61733400      1.93237200      0.66855200
| 17> Cl      2.68840500     -1.51332800     -0.73502200
| 18> Cl      1.17800400      0.09520700      2.19789900
| 19>  H     -3.53558100     -0.81217200     -0.13955500
| 20>  H     -2.32048000      2.60766500      1.18546700
| 21>  H     -0.99373900      1.46076500      1.42670600
| 22>  H     -0.99732300      2.54864500      0.01020100
| 23>  H     -3.28438500      2.48407900     -1.33459700
| 24>  H     -2.04135200      1.50288500     -2.08777300
| 25>  H     -3.68656300      0.82408000     -1.86995500
| 26>  C     -2.64437800     -0.60127900      1.85773200
| 27>  H     -3.41117000     -0.00756400      2.36828900
| 28>  H     -2.85494200     -1.65317400      2.05912200
| 29>  H     -1.67563200     -0.35998900      2.29946500
| 30>  C     -0.88862700     -2.29524700      0.33828300
| 31>  H     -1.71317300     -2.99804800      0.48272600
| 32>  H     -0.08207300     -2.80864600     -0.19985400
| 33>  H     -0.48955900     -1.98035300      1.30208900
| 34>  C     -1.86016700     -1.57410400     -1.87386400
| 35>  H     -1.05714000     -2.11197700     -2.38968000
| 36>  H     -2.70809900     -2.25271800     -1.74493000
| 37>  H     -2.14853900     -0.73961200     -2.51322300
| 38> *
| 39>
| 40>
| 41>                          ****END OF INPUT****

CARTESIAN COORDINATES (ANGSTROEM)
---------------------------------
  O     -0.318740   -0.196726   -0.707663
  C     -1.280210   -1.112417   -0.538898
  C     -2.695392   -0.328883    0.358785
  C     -2.441431    0.976982   -0.102196
  C     -2.917132    1.454576   -1.423359
  Fe     1.390565    0.113114   -0.027527
  Cl     1.866710    2.136767   -0.768034
  C     -1.617334    1.932372    0.668552
  Cl     2.688405   -1.513328   -0.735022
  Cl     1.178004    0.095207    2.197899
  H     -3.535581   -0.812172   -0.139555
  H     -2.320480    2.607665    1.185467
  H     -0.993739    1.460765    1.426706
  H     -0.997323    2.548645    0.010201
  H     -3.284385    2.484079   -1.334597
  H     -2.041352    1.502885   -2.087773
  H     -3.686563    0.824080   -1.869955
  C     -2.644378   -0.601279    1.857732
  H     -3.411170   -0.007564    2.368289
  H     -2.854942   -1.653174    2.059122
  H     -1.675632   -0.359989    2.299465
  C     -0.888627   -2.295247    0.338283
  H     -1.713173   -2.998048    0.482726
  H     -0.082073   -2.808646   -0.199854
  H     -0.489559   -1.980353    1.302089
  C     -1.860167   -1.574104   -1.873864
  H     -1.057140   -2.111977   -2.389680
  H     -2.708099   -2.252718   -1.744930
  H     -2.148539   -0.739612   -2.513223

ORBITAL ENERGIES
----------------
                 SPIN UP ORBITALS
  NO   OCC          E(Eh)            E(eV)
   0   1.0000    -261.546769     -7117.0494
   1   1.0000    -104.775613     -2851.0894
   2   1.0000    -104.771708     -2850.9831
   3   1.0000    -104.769444     -2850.9215
   4   1.0000     -32.214678      -876.6059
   5   1.0000     -27.690585      -753.4991
   6   1.0000     -27.690387      -753.4937
   7   1.0000     -27.690137      -753.4869
   8   1.0000     -20.545075      -559.0599
   9   1.0000     -11.383135      -309.7509
  10   1.0000     -11.370203      -309.3989
  11   1.0000     -11.289042      -307.1905
  12   1.0000     -11.283853      -307.0493
  13   1.0000     -11.270806      -306.6942
  14   1.0000     -11.255034      -306.2650
  15   1.0000     -11.248770      -306.0946
  16   1.0000     -11.240126      -305.8594
  17   1.0000     -10.502196      -285.7793
  18   1.0000     -10.498266      -285.6724
  19   1.0000     -10.496031      -285.6115
  20   1.0000      -7.969100      -216.8502
  21   1.0000      -7.968201      -216.8258
  22   1.0000      -7.968163      -216.8247
  23   1.0000      -7.965089      -216.7411
  24   1.0000      -7.964366      -216.7214
  25   1.0000      -7.964275      -216.7189
  26   1.0000      -7.962856      -216.6803
  27   1.0000      -7.962139      -216.6608
  28   1.0000      -7.962058      -216.6586
  29   1.0000      -4.570080      -124.3582
  30   1.0000      -3.182589       -86.6026
  31   1.0000      -3.182176       -86.5914
  32   1.0000      -3.181736       -86.5794
  33   1.0000      -1.381518       -37.5930
  34   1.0000      -1.188660       -32.3451
  35   1.0000      -1.084447       -29.5093
  36   1.0000      -1.045618       -28.4527
  37   1.0000      -1.044100       -28.4114
  38   1.0000      -1.039496       -28.2861
  39   1.0000      -1.036611       -28.2076
  40   1.0000      -1.009985       -27.4831
  41   1.0000      -0.974638       -26.5213
  42   1.0000      -0.933447       -25.4004
  43   1.0000      -0.911553       -24.8046
  44   1.0000      -0.899610       -24.4796
  45   1.0000      -0.899471       -24.4758
  46   1.0000      -0.891372       -24.2555
  47   1.0000      -0.890602       -24.2345
  48   1.0000      -0.789087       -21.4721
  49   1.0000      -0.766356       -20.8536
  50   1.0000      -0.705992       -19.2110
  51   1.0000      -0.691227       -18.8093
  52   1.0000      -0.673528       -18.3276
  53   1.0000      -0.650842       -17.7103
  54   1.0000      -0.644746       -17.5444
  55   1.0000      -0.629210       -17.1217
  56   1.0000      -0.601738       -16.3741
  57   1.0000      -0.596400       -16.2289
  58   1.0000      -0.592490       -16.1225
  59   1.0000      -0.580288       -15.7904
  60   1.0000      -0.577009       -15.7012
  61   1.0000      -0.560465       -15.2510
  62   1.0000      -0.556681       -15.1481
  63   1.0000      -0.543859       -14.7992
  64   1.0000      -0.534746       -14.5512
  65   1.0000      -0.528126       -14.3710
  66   1.0000      -0.509056       -13.8521
  67   1.0000      -0.470043       -12.7905
  68   1.0000      -0.459733       -12.5100
  69   1.0000      -0.448633       -12.2079
  70   1.0000      -0.425179       -11.5697
  71   1.0000      -0.423907       -11.5351
  72   1.0000      -0.421629       -11.4731
  73   1.0000      -0.412546       -11.2259
  74   1.0000      -0.411560       -11.1991
  75   1.0000      -0.409842       -11.1524
  76   1.0000      -0.399690       -10.8761
  77   0.0000       0.005999         0.1632
  78   0.0000       0.011912         0.3241
  79   0.0000       0.019485         0.5302
  80   0.0000       0.020121         0.5475
  81   0.0000       0.030442         0.8284

                 SPIN DOWN ORBITALS
  NO   OCC          E(Eh)            E(eV)
   0   1.0000    -261.543226     -7116.9530
   1   1.0000    -104.774308     -2851.0539
   2   1.0000    -104.770363     -2850.9465
   3   1.0000    -104.768008     -2850.8824
   4   1.0000     -32.052601      -872.1956
   5   1.0000     -27.530698      -749.1484
   6   1.0000     -27.530530      -749.1438
   7   1.0000     -27.529997      -749.1293
   8   1.0000     -20.539421      -558.9061
   9   1.0000     -11.383112      -309.7502
  10   1.0000     -11.370136      -309.3971
  11   1.0000     -11.289045      -307.1905
  12   1.0000     -11.283665      -307.0441
  13   1.0000     -11.270836      -306.6950
  14   1.0000     -11.255052      -306.2655
  15   1.0000     -11.248656      -306.0915
  16   1.0000     -11.240087      -305.8583
  17   1.0000     -10.500787      -285.7410
  18   1.0000     -10.496825      -285.6331
  19   1.0000     -10.494494      -285.5697
  20   1.0000      -7.966624      -216.7828
  21   1.0000      -7.966209      -216.7716
  22   1.0000      -7.966132      -216.7695
  23   1.0000      -7.962798      -216.6788
  24   1.0000      -7.962143      -216.6609
  25   1.0000      -7.962052      -216.6585
  26   1.0000      -7.960453      -216.6149
  27   1.0000      -7.959738      -216.5955
  28   1.0000      -7.959661      -216.5934
  29   1.0000      -4.127783      -112.3227
  30   1.0000      -2.649672       -72.1012
  31   1.0000      -2.649542       -72.0977
  32   1.0000      -2.648652       -72.0735
  33   1.0000      -1.366941       -37.1964
  34   1.0000      -1.187741       -32.3201
  35   1.0000      -1.081853       -29.4387
  36   1.0000      -1.042952       -28.3802
  37   1.0000      -1.031452       -28.0672
  38   1.0000      -1.020009       -27.7559
  39   1.0000      -1.016395       -27.6575
  40   1.0000      -1.009603       -27.4727
  41   1.0000      -0.973802       -26.4985
  42   1.0000      -0.932236       -25.3674
  43   1.0000      -0.796908       -21.6850
  44   1.0000      -0.771475       -20.9929
  45   1.0000      -0.706496       -19.2247
  46   1.0000      -0.690340       -18.7851
  47   1.0000      -0.674471       -18.3533
  48   1.0000      -0.652865       -17.7654
  49   1.0000      -0.643407       -17.5080
  50   1.0000      -0.628264       -17.0959
  51   1.0000      -0.601951       -16.3799
  52   1.0000      -0.595278       -16.1983
  53   1.0000      -0.592452       -16.1214
  54   1.0000      -0.580519       -15.7967
  55   1.0000      -0.575943       -15.6722
  56   1.0000      -0.559657       -15.2291
  57   1.0000      -0.556472       -15.1424
  58   1.0000      -0.543089       -14.7782
  59   1.0000      -0.529007       -14.3950
  60   1.0000      -0.527659       -14.3583
  61   1.0000      -0.501035       -13.6338
  62   1.0000      -0.469292       -12.7701
  63   1.0000      -0.463446       -12.6110
  64   1.0000      -0.456288       -12.4162
  65   1.0000      -0.435438       -11.8489
  66   1.0000      -0.432363       -11.7652
  67   1.0000      -0.430338       -11.7101
  68   1.0000      -0.423540       -11.5251
  69   1.0000      -0.409915       -11.1543
  70   1.0000      -0.397851       -10.8261
  71   1.0000      -0.391433       -10.6514
  72   0.0000       0.006000         0.1633
  73   0.0000       0.011734         0.3193
  74   0.0000       0.019489         0.5303
  75   0.0000       0.020102         0.5470
  76   0.0000       0.030462         0.8289

E(0)                                       ...  -3028.426094159
E(0)                                       ...  -3028.426094159
E(CORR)(strong-pairs)                      ...     -2.872306322
E(CORR)(weak-pairs)                        ...     -0.035600768
E(CORR)(corrected)                         ...     -2.907907091
E(TOT)                                     ...  -3031.334001250
E(CCSD(T))                                 ...  -3031.453047341
FINAL SINGLE POINT ENERGY     -3031.453047341480

DIPOLE MOMENT
-------------
                                X             Y             Z
Electronic contribution:     39.81625       5.63986       1.56245
Nuclear contribution   :    -44.83035      -5.55008      -1.97083
                        -----------------------------------------
Total Dipole Moment    :     -5.01410       0.08979      -0.40839
                        -----------------------------------------
Magnitude (a.u.)       :      5.03151
Magnitude (Debye)      :     12.78907

Rotational constants in cm-1:     0.019068     0.011616     0.010766
Rotational constants in MHz :   571.639235   348.236771   322.770899

                             ****ORCA TERMINATED NORMALLY****
TOTAL RUN TIME: 0 days 20 hours 4 minutes 7 seconds 911 msec
