                         Program Version 4.1.2  - RELEASE  -
|  1> ! aug-cc-pVTZ aug-cc-pVTZ/C DLPNO-CCSD(T1) TightSCF NormalPNO UNO MiniPrint AutoAux
|  2> %pal nproc 10 end
|  3> %maxcore 20000
|  4> %mdci
|  5>      density none
|  6> end
|  7>
|  8> * xyz 0 6
|  9>  O     -0.27827800     -0.23739900     -0.73530900
| 10>  C     -1.16122200     -1.15702200     -0.56965300
| 11>  C     -2.76528000     -0.32568000      0.59584000
| 12>  C     -2.69488200      0.88209700     -0.05029700
| 13>  C     -3.45169700      1.14769700     -1.31424700
| 14> Fe      1.46203600      0.15285500     -0.03340400
| 15> Cl      1.96933400      2.06972200     -0.96051600
| 16>  C     -1.79821700      1.98155600      0.39982400
| 17> Cl      2.67711300     -1.56515200     -0.64724600
| 18> Cl      1.26488300      0.30521800      2.15991700
| 19>  H     -3.51441100     -1.02349700      0.22454800
| 20>  H     -2.29050000      2.95483700      0.29644400
| 21>  H     -1.42998500      1.86462000      1.41852700
| 22>  H     -0.92493900      2.00215800     -0.27068600
| 23>  H     -4.12649400      1.99846800     -1.15168200
| 24>  H     -2.77021600      1.44659900     -2.12171500
| 25>  H     -4.05178900      0.29551500     -1.63915900
| 26>  C     -2.40147800     -0.49177900      2.05759700
| 27>  H     -3.10416800      0.08323100      2.67299800
| 28>  H     -2.48278500     -1.53562300      2.36674900
| 29>  H     -1.39309800     -0.14618000      2.29271900
| 30>  C     -0.82984900     -2.28855800      0.37896200
| 31>  H     -1.68758800     -2.93244200      0.58188500
| 32>  H     -0.06294000     -2.88099800     -0.13864300
| 33>  H     -0.39045600     -1.93232100      1.31001300
| 34>  C     -1.88950400     -1.57318900     -1.83128700
| 35>  H     -1.19521200     -2.22837000     -2.37338000
| 36>  H     -2.80194900     -2.13829600     -1.63061800
| 37>  H     -2.09999500     -0.71988200     -2.47408100
| 38> *
| 39>
| 40>
| 41>                          ****END OF INPUT****

CARTESIAN COORDINATES (ANGSTROEM)
---------------------------------
  O     -0.278278   -0.237399   -0.735309
  C     -1.161222   -1.157022   -0.569653
  C     -2.765280   -0.325680    0.595840
  C     -2.694882    0.882097   -0.050297
  C     -3.451697    1.147697   -1.314247
  Fe     1.462036    0.152855   -0.033404
  Cl     1.969334    2.069722   -0.960516
  C     -1.798217    1.981556    0.399824
  Cl     2.677113   -1.565152   -0.647246
  Cl     1.264883    0.305218    2.159917
  H     -3.514411   -1.023497    0.224548
  H     -2.290500    2.954837    0.296444
  H     -1.429985    1.864620    1.418527
  H     -0.924939    2.002158   -0.270686
  H     -4.126494    1.998468   -1.151682
  H     -2.770216    1.446599   -2.121715
  H     -4.051789    0.295515   -1.639159
  C     -2.401478   -0.491779    2.057597
  H     -3.104168    0.083231    2.672998
  H     -2.482785   -1.535623    2.366749
  H     -1.393098   -0.146180    2.292719
  C     -0.829849   -2.288558    0.378962
  H     -1.687588   -2.932442    0.581885
  H     -0.062940   -2.880998   -0.138643
  H     -0.390456   -1.932321    1.310013
  C     -1.889504   -1.573189   -1.831287
  H     -1.195212   -2.228370   -2.373380
  H     -2.801949   -2.138296   -1.630618
  H     -2.099995   -0.719882   -2.474081

ORBITAL ENERGIES
----------------
                 SPIN UP ORBITALS
  NO   OCC          E(Eh)            E(eV)
   0   1.0000    -261.561481     -7117.4498
   1   1.0000    -104.784572     -2851.3332
   2   1.0000    -104.780573     -2851.2243
   3   1.0000    -104.779318     -2851.1902
   4   1.0000     -32.229327      -877.0046
   5   1.0000     -27.705537      -753.9060
   6   1.0000     -27.704830      -753.8868
   7   1.0000     -27.704643      -753.8816
   8   1.0000     -20.583529      -560.1063
   9   1.0000     -11.406362      -310.3829
  10   1.0000     -11.317880      -307.9752
  11   1.0000     -11.266892      -306.5877
  12   1.0000     -11.266092      -306.5660
  13   1.0000     -11.265481      -306.5493
  14   1.0000     -11.260993      -306.4272
  15   1.0000     -11.248056      -306.0752
  16   1.0000     -11.243836      -305.9603
  17   1.0000     -10.511251      -286.0257
  18   1.0000     -10.507234      -285.9164
  19   1.0000     -10.505924      -285.8807
  20   1.0000      -7.978114      -217.0955
  21   1.0000      -7.977294      -217.0732
  22   1.0000      -7.977272      -217.0726
  23   1.0000      -7.974082      -216.9858
  24   1.0000      -7.973335      -216.9655
  25   1.0000      -7.973273      -216.9638
  26   1.0000      -7.972740      -216.9493
  27   1.0000      -7.972039      -216.9302
  28   1.0000      -7.971966      -216.9282
  29   1.0000      -4.584521      -124.7512
  30   1.0000      -3.197425       -87.0063
  31   1.0000      -3.196224       -86.9737
  32   1.0000      -3.195965       -86.9666
  33   1.0000      -1.427210       -38.8363
  34   1.0000      -1.157109       -31.4865
  35   1.0000      -1.087826       -29.6013
  36   1.0000      -1.056243       -28.7418
  37   1.0000      -1.050468       -28.5847
  38   1.0000      -1.047495       -28.5038
  39   1.0000      -1.034484       -28.1497
  40   1.0000      -0.996197       -27.1079
  41   1.0000      -0.982432       -26.7333
  42   1.0000      -0.930301       -25.3148
  43   1.0000      -0.914419       -24.8826
  44   1.0000      -0.913726       -24.8637
  45   1.0000      -0.913650       -24.8617
  46   1.0000      -0.903986       -24.5987
  47   1.0000      -0.903301       -24.5801
  48   1.0000      -0.797277       -21.6950
  49   1.0000      -0.753653       -20.5079
  50   1.0000      -0.692028       -18.8310
  51   1.0000      -0.686957       -18.6931
  52   1.0000      -0.680913       -18.5286
  53   1.0000      -0.669159       -18.2087
  54   1.0000      -0.641456       -17.4549
  55   1.0000      -0.623863       -16.9762
  56   1.0000      -0.603881       -16.4324
  57   1.0000      -0.593893       -16.1607
  58   1.0000      -0.582030       -15.8378
  59   1.0000      -0.575389       -15.6571
  60   1.0000      -0.569900       -15.5078
  61   1.0000      -0.560875       -15.2622
  62   1.0000      -0.556317       -15.1382
  63   1.0000      -0.543444       -14.7879
  64   1.0000      -0.538366       -14.6497
  65   1.0000      -0.523492       -14.2450
  66   1.0000      -0.515556       -14.0290
  67   1.0000      -0.486448       -13.2369
  68   1.0000      -0.468455       -12.7473
  69   1.0000      -0.463197       -12.6042
  70   1.0000      -0.435896       -11.8613
  71   1.0000      -0.432052       -11.7567
  72   1.0000      -0.429836       -11.6964
  73   1.0000      -0.421296       -11.4641
  74   1.0000      -0.419796       -11.4232
  75   1.0000      -0.418881       -11.3983
  76   1.0000      -0.377302       -10.2669
  77   0.0000       0.010556         0.2872
  78   0.0000       0.020903         0.5688
  79   0.0000       0.022703         0.6178
  80   0.0000       0.028297         0.7700
  81   0.0000       0.035726         0.9722

                 SPIN DOWN ORBITALS
  NO   OCC          E(Eh)            E(eV)
   0   1.0000    -261.557920     -7117.3529
   1   1.0000    -104.783147     -2851.2944
   2   1.0000    -104.779074     -2851.1836
   3   1.0000    -104.777845     -2851.1501
   4   1.0000     -32.067271      -872.5948
   5   1.0000     -27.545229      -749.5438
   6   1.0000     -27.545152      -749.5417
   7   1.0000     -27.544883      -749.5344
   8   1.0000     -20.579247      -559.9898
   9   1.0000     -11.406294      -310.3810
  10   1.0000     -11.317614      -307.9679
  11   1.0000     -11.266928      -306.5887
  12   1.0000     -11.265981      -306.5629
  13   1.0000     -11.265548      -306.5511
  14   1.0000     -11.260977      -306.4268
  15   1.0000     -11.248107      -306.0766
  16   1.0000     -11.243829      -305.9602
  17   1.0000     -10.509723      -285.9841
  18   1.0000     -10.505632      -285.8728
  19   1.0000     -10.504353      -285.8380
  20   1.0000      -7.975607      -217.0273
  21   1.0000      -7.975000      -217.0108
  22   1.0000      -7.974940      -217.0092
  23   1.0000      -7.971554      -216.9170
  24   1.0000      -7.970849      -216.8978
  25   1.0000      -7.970764      -216.8955
  26   1.0000      -7.970321      -216.8835
  27   1.0000      -7.969554      -216.8626
  28   1.0000      -7.969462      -216.8601
  29   1.0000      -4.142244      -112.7162
  30   1.0000      -2.663936       -72.4894
  31   1.0000      -2.663896       -72.4883
  32   1.0000      -2.663180       -72.4688
  33   1.0000      -1.416366       -38.5413
  34   1.0000      -1.156336       -31.4655
  35   1.0000      -1.085066       -29.5262
  36   1.0000      -1.041559       -28.3423
  37   1.0000      -1.034226       -28.1427
  38   1.0000      -1.028761       -27.9940
  39   1.0000      -1.025898       -27.9161
  40   1.0000      -0.995556       -27.0904
  41   1.0000      -0.982267       -26.7288
  42   1.0000      -0.915168       -24.9030
  43   1.0000      -0.811330       -22.0774
  44   1.0000      -0.753873       -20.5139
  45   1.0000      -0.694739       -18.9048
  46   1.0000      -0.686445       -18.6791
  47   1.0000      -0.680185       -18.5088
  48   1.0000      -0.668739       -18.1973
  49   1.0000      -0.641358       -17.4522
  50   1.0000      -0.623331       -16.9617
  51   1.0000      -0.603235       -16.4149
  52   1.0000      -0.593889       -16.1606
  53   1.0000      -0.581791       -15.8313
  54   1.0000      -0.574401       -15.6303
  55   1.0000      -0.569628       -15.5004
  56   1.0000      -0.560821       -15.2607
  57   1.0000      -0.556049       -15.1309
  58   1.0000      -0.542736       -14.7686
  59   1.0000      -0.535290       -14.5660
  60   1.0000      -0.516293       -14.0490
  61   1.0000      -0.512263       -13.9394
  62   1.0000      -0.485855       -13.2208
  63   1.0000      -0.474506       -12.9120
  64   1.0000      -0.471875       -12.8404
  65   1.0000      -0.445123       -12.1124
  66   1.0000      -0.441492       -12.0136
  67   1.0000      -0.439065       -11.9476
  68   1.0000      -0.424922       -11.5627
  69   1.0000      -0.419059       -11.4032
  70   1.0000      -0.405172       -11.0253
  71   1.0000      -0.375081       -10.2065
  72   0.0000       0.010546         0.2870
  73   0.0000       0.020879         0.5681
  74   0.0000       0.022694         0.6175
  75   0.0000       0.028023         0.7625
  76   0.0000       0.035051         0.9538

E(0)                                       ...  -3028.436582293
E(0)                                       ...  -3028.436582293
E(CORR)(strong-pairs)                      ...     -2.873723859
E(CORR)(weak-pairs)                        ...     -0.036411264
E(CORR)(corrected)                         ...     -2.910135123
E(TOT)                                     ...  -3031.346717416
E(CCSD(T))                                 ...  -3031.466773730
FINAL SINGLE POINT ENERGY     -3031.466773729872

DIPOLE MOMENT
-------------
                                X             Y             Z
Electronic contribution:     42.35126       5.57383       0.80347
Nuclear contribution   :    -46.61726      -6.39714      -1.26205
                        -----------------------------------------
Total Dipole Moment    :     -4.26600      -0.82331      -0.45858
                        -----------------------------------------
Magnitude (a.u.)       :      4.36885
Magnitude (Debye)      :     11.10474

Rotational constants in cm-1:     0.019219     0.010901     0.010268
Rotational constants in MHz :   576.182386   326.812083   307.819617

                             ****ORCA TERMINATED NORMALLY****
TOTAL RUN TIME: 0 days 18 hours 34 minutes 3 seconds 371 msec
