                         Program Version 4.1.2  - RELEASE  -
|  1> ! aug-cc-pVTZ aug-cc-pVTZ/C DLPNO-CCSD(T1) TightSCF NormalPNO UNO MiniPrint AutoAux
|  2> %pal nproc 10 end
|  3> %maxcore 20000
|  4> %mdci
|  5>      density none
|  6> end
|  7>
|  8> * xyz 0 6
|  9>  O     -0.38857500     -0.20702900     -0.54623400
| 10>  C     -1.41633300     -1.20284100     -0.37439500
| 11>  C     -2.78931800     -0.13279200     -0.19438000
| 12>  C     -1.98151800      1.13300600     -0.26902800
| 13>  C     -1.88382100      1.86100500     -1.55572800
| 14> Fe      1.37687600      0.04006500      0.03246500
| 15> Cl      1.81438700      2.03335800     -0.83189500
| 16>  C     -1.57137200      1.84882400      0.96088500
| 17> Cl      2.52755800     -1.66902700     -0.71849000
| 18> Cl      1.33196500      0.14633500      2.24680400
| 19>  H     -3.39086600     -0.23888400     -1.10076700
| 20>  H     -2.44137200      2.44576900      1.28130900
| 21>  H     -1.31227100      1.17399800      1.77730700
| 22>  H     -0.73946600      2.52964900      0.76904900
| 23>  H     -2.66378000      2.64068800     -1.54316900
| 24>  H     -0.91327300      2.35657200     -1.64854200
| 25>  H     -2.06351200      1.21051500     -2.41277500
| 26>  C     -3.64254800     -0.34452400      1.04707100
| 27>  H     -4.43973000      0.40552000      1.11244500
| 28>  H     -4.12082300     -1.32726800      0.99970600
| 29>  H     -3.06070300     -0.30209500      1.97055600
| 30>  C     -1.17746900     -2.05614800      0.85269900
| 31>  H     -1.99673500     -2.76558300      1.00581400
| 32>  H     -0.25460800     -2.62921600      0.70243100
| 33>  H     -1.04513500     -1.45346300      1.75302200
| 34>  C     -1.54210100     -2.01493800     -1.64717200
| 35>  H     -0.60363500     -2.55607200     -1.81390200
| 36>  H     -2.35970100     -2.74051200     -1.57484900
| 37>  H     -1.71414800     -1.36595700     -2.51069700
| 38> *
| 39>
| 40>
| 41>                          ****END OF INPUT****

CARTESIAN COORDINATES (ANGSTROEM)
---------------------------------
  O     -0.388575   -0.207029   -0.546234
  C     -1.416333   -1.202841   -0.374395
  C     -2.789318   -0.132792   -0.194380
  C     -1.981518    1.133006   -0.269028
  C     -1.883821    1.861005   -1.555728
  Fe     1.376876    0.040065    0.032465
  Cl     1.814387    2.033358   -0.831895
  C     -1.571372    1.848824    0.960885
  Cl     2.527558   -1.669027   -0.718490
  Cl     1.331965    0.146335    2.246804
  H     -3.390866   -0.238884   -1.100767
  H     -2.441372    2.445769    1.281309
  H     -1.312271    1.173998    1.777307
  H     -0.739466    2.529649    0.769049
  H     -2.663780    2.640688   -1.543169
  H     -0.913273    2.356572   -1.648542
  H     -2.063512    1.210515   -2.412775
  C     -3.642548   -0.344524    1.047071
  H     -4.439730    0.405520    1.112445
  H     -4.120823   -1.327268    0.999706
  H     -3.060703   -0.302095    1.970556
  C     -1.177469   -2.056148    0.852699
  H     -1.996735   -2.765583    1.005814
  H     -0.254608   -2.629216    0.702431
  H     -1.045135   -1.453463    1.753022
  C     -1.542101   -2.014938   -1.647172
  H     -0.603635   -2.556072   -1.813902
  H     -2.359701   -2.740512   -1.574849
  H     -1.714148   -1.365957   -2.510697

ORBITAL ENERGIES
----------------
                 SPIN UP ORBITALS
  NO   OCC          E(Eh)            E(eV)
   0   1.0000    -261.547942     -7117.0813
   1   1.0000    -104.776462     -2851.1125
   2   1.0000    -104.774779     -2851.0667
   3   1.0000    -104.772408     -2851.0022
   4   1.0000     -32.215855      -876.6380
   5   1.0000     -27.691742      -753.5306
   6   1.0000     -27.691608      -753.5270
   7   1.0000     -27.691271      -753.5178
   8   1.0000     -20.555693      -559.3488
   9   1.0000     -11.406295      -310.3811
  10   1.0000     -11.344215      -308.6918
  11   1.0000     -11.293199      -307.3036
  12   1.0000     -11.280084      -306.9467
  13   1.0000     -11.277685      -306.8814
  14   1.0000     -11.263562      -306.4971
  15   1.0000     -11.238400      -305.8124
  16   1.0000     -11.235580      -305.7357
  17   1.0000     -10.503037      -285.8022
  18   1.0000     -10.501444      -285.7588
  19   1.0000     -10.499016      -285.6927
  20   1.0000      -7.969868      -216.8711
  21   1.0000      -7.969117      -216.8507
  22   1.0000      -7.969039      -216.8486
  23   1.0000      -7.968331      -216.8293
  24   1.0000      -7.967482      -216.8062
  25   1.0000      -7.967449      -216.8053
  26   1.0000      -7.965815      -216.7609
  27   1.0000      -7.965136      -216.7424
  28   1.0000      -7.965057      -216.7402
  29   1.0000      -4.571268      -124.3905
  30   1.0000      -3.183658       -86.6317
  31   1.0000      -3.183486       -86.6271
  32   1.0000      -3.182867       -86.6102
  33   1.0000      -1.355022       -36.8720
  34   1.0000      -1.172598       -31.9080
  35   1.0000      -1.087513       -29.5927
  36   1.0000      -1.047540       -28.5050
  37   1.0000      -1.042091       -28.3567
  38   1.0000      -1.039830       -28.2952
  39   1.0000      -1.038183       -28.2504
  40   1.0000      -1.014089       -27.5948
  41   1.0000      -0.966117       -26.2894
  42   1.0000      -0.930442       -25.3186
  43   1.0000      -0.903547       -24.5868
  44   1.0000      -0.900704       -24.5094
  45   1.0000      -0.900243       -24.4968
  46   1.0000      -0.892491       -24.2859
  47   1.0000      -0.892006       -24.2727
  48   1.0000      -0.794731       -21.6257
  49   1.0000      -0.758784       -20.6476
  50   1.0000      -0.698768       -19.0144
  51   1.0000      -0.687365       -18.7041
  52   1.0000      -0.670365       -18.2416
  53   1.0000      -0.637233       -17.3400
  54   1.0000      -0.630464       -17.1558
  55   1.0000      -0.624012       -16.9802
  56   1.0000      -0.600650       -16.3445
  57   1.0000      -0.596698       -16.2370
  58   1.0000      -0.593286       -16.1441
  59   1.0000      -0.580927       -15.8078
  60   1.0000      -0.575019       -15.6471
  61   1.0000      -0.558436       -15.1958
  62   1.0000      -0.546813       -14.8795
  63   1.0000      -0.538490       -14.6531
  64   1.0000      -0.530162       -14.4265
  65   1.0000      -0.520283       -14.1576
  66   1.0000      -0.505440       -13.7537
  67   1.0000      -0.476025       -12.9533
  68   1.0000      -0.463831       -12.6215
  69   1.0000      -0.451018       -12.2728
  70   1.0000      -0.434373       -11.8199
  71   1.0000      -0.426945       -11.6178
  72   1.0000      -0.422709       -11.5025
  73   1.0000      -0.416536       -11.3345
  74   1.0000      -0.413711       -11.2577
  75   1.0000      -0.412130       -11.2146
  76   1.0000      -0.410380       -11.1670
  77   0.0000       0.006999         0.1905
  78   0.0000       0.019554         0.5321
  79   0.0000       0.021876         0.5953
  80   0.0000       0.030660         0.8343
  81   0.0000       0.036055         0.9811

                 SPIN DOWN ORBITALS
  NO   OCC          E(Eh)            E(eV)
   0   1.0000    -261.544394     -7116.9848
   1   1.0000    -104.775147     -2851.0767
   2   1.0000    -104.773405     -2851.0293
   3   1.0000    -104.770957     -2850.9627
   4   1.0000     -32.053868      -872.2301
   5   1.0000     -27.531941      -749.1822
   6   1.0000     -27.531744      -749.1768
   7   1.0000     -27.531293      -749.1646
   8   1.0000     -20.549990      -559.1937
   9   1.0000     -11.406344      -310.3824
  10   1.0000     -11.344039      -308.6870
  11   1.0000     -11.293048      -307.2995
  12   1.0000     -11.280064      -306.9461
  13   1.0000     -11.277693      -306.8816
  14   1.0000     -11.263561      -306.4971
  15   1.0000     -11.238351      -305.8111
  16   1.0000     -11.235564      -305.7352
  17   1.0000     -10.501624      -285.7637
  18   1.0000     -10.499966      -285.7186
  19   1.0000     -10.497465      -285.6505
  20   1.0000      -7.967576      -216.8088
  21   1.0000      -7.966976      -216.7924
  22   1.0000      -7.966900      -216.7904
  23   1.0000      -7.965852      -216.7619
  24   1.0000      -7.965305      -216.7470
  25   1.0000      -7.965244      -216.7453
  26   1.0000      -7.963448      -216.6964
  27   1.0000      -7.962672      -216.6753
  28   1.0000      -7.962614      -216.6737
  29   1.0000      -4.129182      -112.3607
  30   1.0000      -2.651077       -72.1395
  31   1.0000      -2.651020       -72.1379
  32   1.0000      -2.650044       -72.1114
  33   1.0000      -1.340063       -36.4650
  34   1.0000      -1.171134       -31.8682
  35   1.0000      -1.084968       -29.5235
  36   1.0000      -1.036744       -28.2113
  37   1.0000      -1.033164       -28.1138
  38   1.0000      -1.022667       -27.8282
  39   1.0000      -1.019566       -27.7438
  40   1.0000      -1.013473       -27.5780
  41   1.0000      -0.965448       -26.2712
  42   1.0000      -0.925781       -25.1918
  43   1.0000      -0.797651       -21.7052
  44   1.0000      -0.763474       -20.7752
  45   1.0000      -0.698882       -19.0176
  46   1.0000      -0.686841       -18.6899
  47   1.0000      -0.671268       -18.2661
  48   1.0000      -0.638635       -17.3781
  49   1.0000      -0.630646       -17.1608
  50   1.0000      -0.622093       -16.9280
  51   1.0000      -0.600753       -16.3473
  52   1.0000      -0.595674       -16.2091
  53   1.0000      -0.593188       -16.1415
  54   1.0000      -0.579584       -15.7713
  55   1.0000      -0.574303       -15.6276
  56   1.0000      -0.558186       -15.1890
  57   1.0000      -0.544006       -14.8032
  58   1.0000      -0.537876       -14.6363
  59   1.0000      -0.528277       -14.3751
  60   1.0000      -0.515071       -14.0158
  61   1.0000      -0.502316       -13.6687
  62   1.0000      -0.472584       -12.8597
  63   1.0000      -0.466465       -12.6932
  64   1.0000      -0.460563       -12.5326
  65   1.0000      -0.437817       -11.9136
  66   1.0000      -0.434346       -11.8192
  67   1.0000      -0.433292       -11.7905
  68   1.0000      -0.432563       -11.7706
  69   1.0000      -0.412591       -11.2272
  70   1.0000      -0.403391       -10.9768
  71   1.0000      -0.399868       -10.8810
  72   0.0000       0.006969         0.1896
  73   0.0000       0.019419         0.5284
  74   0.0000       0.021857         0.5948
  75   0.0000       0.030696         0.8353
  76   0.0000       0.035343         0.9617

E(0)                                       ...  -3028.433545255
E(0)                                       ...  -3028.433545255
E(CORR)(strong-pairs)                      ...     -2.871889547
E(CORR)(weak-pairs)                        ...     -0.035467843
E(CORR)(corrected)                         ...     -2.907357390
E(TOT)                                     ...  -3031.340902645
E(CCSD(T))                                 ...  -3031.459455995
FINAL SINGLE POINT ENERGY     -3031.459455994930

DIPOLE MOMENT
-------------
                                X             Y             Z
Electronic contribution:     40.11847       3.90129       1.87810
Nuclear contribution   :    -44.81496      -3.37571      -2.27607
                        -----------------------------------------
Total Dipole Moment    :     -4.69649       0.52557      -0.39797
                        -----------------------------------------
Magnitude (a.u.)       :      4.74253
Magnitude (Debye)      :     12.05456

Rotational constants in cm-1:     0.018915     0.011988     0.010753
Rotational constants in MHz :   567.046063   359.381802   322.368041

                             ****ORCA TERMINATED NORMALLY****
TOTAL RUN TIME: 0 days 21 hours 8 minutes 36 seconds 294 msec
