                         Program Version 4.1.2  - RELEASE  -
|  1> ! aug-cc-pVTZ aug-cc-pVTZ/C DLPNO-CCSD(T1) TightSCF NormalPNO UNO MiniPrint AutoAux
|  2> %pal nproc 10 end
|  3> %maxcore 20000
|  4> %mdci
|  5>      density none
|  6> end
|  7>
|  8> * xyz 0 6
|  9>  O      0.14682300      0.42983700     -0.90076300
| 10>  C      0.92982000      1.38364300     -0.69019900
| 11>  C      3.09333300      0.13747900      0.57719600
| 12>  C      2.72545100     -0.91988000     -0.17345400
| 13>  C      3.24126800     -1.10354700     -1.57570500
| 14> Fe     -1.50037000     -0.17822300      0.00980800
| 15> Cl     -2.05003900     -2.00113700     -1.03717900
| 16>  C      1.80288600     -2.00887600      0.29356000
| 17> Cl     -2.79304400      1.55434800     -0.32237100
| 18> Cl     -1.03895300     -0.46975000      2.13410600
| 19>  H      3.80647800      0.83566300      0.13688400
| 20>  H      2.32411100     -2.97532700      0.27827000
| 21>  H      1.40982700     -1.85024700      1.29750700
| 22>  H      0.95293400     -2.11019600     -0.39436400
| 23>  H      3.79692200     -2.04732100     -1.65288100
| 24>  H      2.41181900     -1.17702300     -2.29210000
| 25>  H      3.90915400     -0.29451000     -1.88561600
| 26>  C      2.81407400      0.34382400      2.04230300
| 27>  H      3.61621000     -0.10219000      2.64625700
| 28>  H      2.78772200      1.40765400      2.29895400
| 29>  H      1.87137000     -0.10367400      2.36612200
| 30>  C      0.76853400      2.26153400      0.50982500
| 31>  H      1.65400300      2.86990200      0.69654500
| 32>  H     -0.07742400      2.92951300      0.28841300
| 33>  H      0.50095700      1.68562800      1.39642200
| 34>  C      1.78489300      1.85671300     -1.82499200
| 35>  H      1.22872300      2.67311200     -2.30932600
| 36>  H      2.73659300      2.26303500     -1.48009200
| 37>  H      1.93869200      1.06689100     -2.55854700
| 38> *
| 39>
| 40>
| 41>                          ****END OF INPUT****

CARTESIAN COORDINATES (ANGSTROEM)
---------------------------------
  O      0.146823    0.429837   -0.900763
  C      0.929820    1.383643   -0.690199
  C      3.093333    0.137479    0.577196
  C      2.725451   -0.919880   -0.173454
  C      3.241268   -1.103547   -1.575705
  Fe    -1.500370   -0.178223    0.009808
  Cl    -2.050039   -2.001137   -1.037179
  C      1.802886   -2.008876    0.293560
  Cl    -2.793044    1.554348   -0.322371
  Cl    -1.038953   -0.469750    2.134106
  H      3.806478    0.835663    0.136884
  H      2.324111   -2.975327    0.278270
  H      1.409827   -1.850247    1.297507
  H      0.952934   -2.110196   -0.394364
  H      3.796922   -2.047321   -1.652881
  H      2.411819   -1.177023   -2.292100
  H      3.909154   -0.294510   -1.885616
  C      2.814074    0.343824    2.042303
  H      3.616210   -0.102190    2.646257
  H      2.787722    1.407654    2.298954
  H      1.871370   -0.103674    2.366122
  C      0.768534    2.261534    0.509825
  H      1.654003    2.869902    0.696545
  H     -0.077424    2.929513    0.288413
  H      0.500957    1.685628    1.396422
  C      1.784893    1.856713   -1.824992
  H      1.228723    2.673112   -2.309326
  H      2.736593    2.263035   -1.480092
  H      1.938692    1.066891   -2.558547

ORBITAL ENERGIES
----------------
                 SPIN UP ORBITALS
  NO   OCC          E(Eh)            E(eV)
   0   1.0000    -261.577382     -7117.8824
   1   1.0000    -104.795243     -2851.6235
   2   1.0000    -104.791941     -2851.5337
   3   1.0000    -104.789731     -2851.4736
   4   1.0000     -32.245074      -877.4331
   5   1.0000     -27.721598      -754.3430
   6   1.0000     -27.720391      -754.3102
   7   1.0000     -27.720181      -754.3045
   8   1.0000     -20.626030      -561.2628
   9   1.0000     -11.422157      -310.8127
  10   1.0000     -11.278979      -306.9166
  11   1.0000     -11.273666      -306.7721
  12   1.0000     -11.261989      -306.4543
  13   1.0000     -11.241733      -305.9031
  14   1.0000     -11.241017      -305.8836
  15   1.0000     -11.234483      -305.7058
  16   1.0000     -11.227463      -305.5148
  17   1.0000     -10.521982      -286.3177
  18   1.0000     -10.518637      -286.2267
  19   1.0000     -10.516379      -286.1652
  20   1.0000      -7.988806      -217.3865
  21   1.0000      -7.988067      -217.3663
  22   1.0000      -7.988012      -217.3649
  23   1.0000      -7.985512      -217.2968
  24   1.0000      -7.984736      -217.2757
  25   1.0000      -7.984684      -217.2743
  26   1.0000      -7.983165      -217.2330
  27   1.0000      -7.982514      -217.2153
  28   1.0000      -7.982465      -217.2139
  29   1.0000      -4.599889      -125.1694
  30   1.0000      -3.213070       -87.4321
  31   1.0000      -3.211259       -87.3828
  32   1.0000      -3.211090       -87.3782
  33   1.0000      -1.468832       -39.9689
  34   1.0000      -1.122020       -30.5317
  35   1.0000      -1.102161       -29.9913
  36   1.0000      -1.068527       -29.0761
  37   1.0000      -1.062622       -28.9154
  38   1.0000      -1.059518       -28.8309
  39   1.0000      -1.021275       -27.7903
  40   1.0000      -1.009116       -27.4594
  41   1.0000      -0.955603       -26.0033
  42   1.0000      -0.944174       -25.6923
  43   1.0000      -0.928776       -25.2733
  44   1.0000      -0.928609       -25.2687
  45   1.0000      -0.917812       -24.9749
  46   1.0000      -0.917168       -24.9574
  47   1.0000      -0.893062       -24.3014
  48   1.0000      -0.816479       -22.2175
  49   1.0000      -0.726164       -19.7599
  50   1.0000      -0.715017       -19.4566
  51   1.0000      -0.704763       -19.1776
  52   1.0000      -0.683828       -18.6079
  53   1.0000      -0.651857       -17.7379
  54   1.0000      -0.621077       -16.9004
  55   1.0000      -0.618149       -16.8207
  56   1.0000      -0.604919       -16.4607
  57   1.0000      -0.599997       -16.3267
  58   1.0000      -0.586213       -15.9517
  59   1.0000      -0.579691       -15.7742
  60   1.0000      -0.561126       -15.2690
  61   1.0000      -0.549649       -14.9567
  62   1.0000      -0.545775       -14.8513
  63   1.0000      -0.538571       -14.6553
  64   1.0000      -0.537544       -14.6273
  65   1.0000      -0.523634       -14.2488
  66   1.0000      -0.505712       -13.7611
  67   1.0000      -0.489909       -13.3311
  68   1.0000      -0.478052       -13.0085
  69   1.0000      -0.477923       -13.0049
  70   1.0000      -0.448237       -12.1971
  71   1.0000      -0.441788       -12.0217
  72   1.0000      -0.439871       -11.9695
  73   1.0000      -0.431368       -11.7381
  74   1.0000      -0.430401       -11.7118
  75   1.0000      -0.429015       -11.6741
  76   1.0000      -0.357376        -9.7247
  77   0.0000       0.012635         0.3438
  78   0.0000       0.023807         0.6478
  79   0.0000       0.024532         0.6676
  80   0.0000       0.030794         0.8380
  81   0.0000       0.039367         1.0712

                 SPIN DOWN ORBITALS
  NO   OCC          E(Eh)            E(eV)
   0   1.0000    -261.573793     -7117.7848
   1   1.0000    -104.793746     -2851.5828
   2   1.0000    -104.790376     -2851.4911
   3   1.0000    -104.788153     -2851.4306
   4   1.0000     -32.083092      -873.0253
   5   1.0000     -27.561036      -749.9739
   6   1.0000     -27.560919      -749.9707
   7   1.0000     -27.560833      -749.9684
   8   1.0000     -20.622613      -561.1698
   9   1.0000     -11.422095      -310.8110
  10   1.0000     -11.278873      -306.9137
  11   1.0000     -11.273657      -306.7718
  12   1.0000     -11.262018      -306.4551
  13   1.0000     -11.241689      -305.9019
  14   1.0000     -11.241013      -305.8835
  15   1.0000     -11.234485      -305.7059
  16   1.0000     -11.227471      -305.5150
  17   1.0000     -10.520383      -286.2742
  18   1.0000     -10.516967      -286.1812
  19   1.0000     -10.514703      -286.1196
  20   1.0000      -7.986309      -217.3185
  21   1.0000      -7.985549      -217.2978
  22   1.0000      -7.985513      -217.2968
  23   1.0000      -7.982851      -217.2244
  24   1.0000      -7.982150      -217.2053
  25   1.0000      -7.982059      -217.2029
  26   1.0000      -7.980697      -217.1658
  27   1.0000      -7.979784      -217.1410
  28   1.0000      -7.979701      -217.1387
  29   1.0000      -4.157853      -113.1409
  30   1.0000      -2.679396       -72.9101
  31   1.0000      -2.679362       -72.9091
  32   1.0000      -2.678939       -72.8976
  33   1.0000      -1.460542       -39.7434
  34   1.0000      -1.121723       -30.5236
  35   1.0000      -1.099899       -29.9298
  36   1.0000      -1.052711       -28.6457
  37   1.0000      -1.040091       -28.3023
  38   1.0000      -1.036625       -28.2080
  39   1.0000      -1.020347       -27.7651
  40   1.0000      -1.008853       -27.4523
  41   1.0000      -0.955509       -26.0007
  42   1.0000      -0.893137       -24.3035
  43   1.0000      -0.829314       -22.5668
  44   1.0000      -0.726241       -19.7620
  45   1.0000      -0.716680       -19.5019
  46   1.0000      -0.703997       -19.1567
  47   1.0000      -0.683253       -18.5923
  48   1.0000      -0.651809       -17.7366
  49   1.0000      -0.620526       -16.8854
  50   1.0000      -0.618070       -16.8185
  51   1.0000      -0.604756       -16.4563
  52   1.0000      -0.599907       -16.3243
  53   1.0000      -0.585892       -15.9429
  54   1.0000      -0.578122       -15.7315
  55   1.0000      -0.560381       -15.2487
  56   1.0000      -0.549177       -14.9439
  57   1.0000      -0.544307       -14.8114
  58   1.0000      -0.537736       -14.6325
  59   1.0000      -0.527264       -14.3476
  60   1.0000      -0.523097       -14.2342
  61   1.0000      -0.507799       -13.8179
  62   1.0000      -0.489916       -13.3313
  63   1.0000      -0.486458       -13.2372
  64   1.0000      -0.483900       -13.1676
  65   1.0000      -0.455432       -12.3929
  66   1.0000      -0.452029       -12.3003
  67   1.0000      -0.448991       -12.2177
  68   1.0000      -0.432669       -11.7735
  69   1.0000      -0.430369       -11.7109
  70   1.0000      -0.414425       -11.2771
  71   1.0000      -0.356994        -9.7143
  72   0.0000       0.012618         0.3434
  73   0.0000       0.023782         0.6472
  74   0.0000       0.024492         0.6665
  75   0.0000       0.030737         0.8364
  76   0.0000       0.039283         1.0689

E(0)                                       ...  -3028.471961862
E(0)                                       ...  -3028.471961862
E(CORR)(strong-pairs)                      ...     -2.865293592
E(CORR)(weak-pairs)                        ...     -0.035216346
E(CORR)(corrected)                         ...     -2.900509938
E(TOT)                                     ...  -3031.372471800
E(CCSD(T))                                 ...  -3031.490059031
FINAL SINGLE POINT ENERGY     -3031.490059030521

DIPOLE MOMENT
-------------
                                X             Y             Z
Electronic contribution:    -44.05552      -5.23457       1.60510
Nuclear contribution   :     47.23801       6.81295      -2.24252
                        -----------------------------------------
Total Dipole Moment    :      3.18249       1.57838      -0.63742
                        -----------------------------------------
Magnitude (a.u.)       :      3.60913
Magnitude (Debye)      :      9.17368

Rotational constants in cm-1:     0.018771     0.010537     0.009913
Rotational constants in MHz :   562.745351   315.880757   297.175406

                             ****ORCA TERMINATED NORMALLY****
TOTAL RUN TIME: 0 days 16 hours 46 minutes 56 seconds 271 msec
