                         Program Version 4.1.2  - RELEASE  -
|  1> ! aug-cc-pVTZ aug-cc-pVTZ/C DLPNO-CCSD(T1) TightSCF NormalPNO UNO MiniPrint AutoAux
|  2> %pal nproc 10 end
|  3> %maxcore 20000
|  4> %mdci
|  5>      density none
|  6> end
|  7>
|  8> * xyz 0 6
|  9>  O     -0.29257100     -0.29529700     -0.72914500
| 10>  C     -1.33028700     -1.17770900     -0.51308100
| 11>  C     -2.59814200     -0.35406200      0.26419100
| 12>  C     -2.33494600      1.01624200     -0.13030700
| 13>  C     -2.70950300      1.52561500     -1.46112500
| 14> Fe      1.36648800      0.09709800     -0.03612200
| 15> Cl      1.69314900      2.17041300     -0.76246300
| 16>  C     -1.62271500      1.94136000      0.75918600
| 17> Cl      2.82030900     -1.41737700     -0.68396000
| 18> Cl      1.10772300      0.09910800      2.19956000
| 19>  H     -3.49573500     -0.72582900     -0.23740700
| 20>  H     -2.39711400      2.37595800      1.41839300
| 21>  H     -0.91011900      1.43449300      1.41577700
| 22>  H     -1.13612800      2.75409200      0.21610500
| 23>  H     -3.00603200      2.57896300     -1.40834900
| 24>  H     -1.76808200      1.50565000     -2.03788900
| 25>  H     -3.46339900      0.92972800     -1.97489200
| 26>  C     -2.66968600     -0.59938000      1.77452800
| 27>  H     -3.44256500      0.03145600      2.22773200
| 28>  H     -2.94017800     -1.63940800      1.96619300
| 29>  H     -1.72026800     -0.39976400      2.27513800
| 30>  C     -0.91121900     -2.36468700      0.35308400
| 31>  H     -1.72919300     -3.07448500      0.50954200
| 32>  H     -0.10663700     -2.87479600     -0.18861900
| 33>  H     -0.50950600     -2.04613700      1.31545600
| 34>  C     -1.86009700     -1.67026700     -1.86407300
| 35>  H     -1.04467700     -2.20458000     -2.36094100
| 36>  H     -2.70858800     -2.35205500     -1.74454900
| 37>  H     -2.15043400     -0.84458000     -2.51710800
| 38> *
| 39>
| 40>
| 41>                          ****END OF INPUT****

CARTESIAN COORDINATES (ANGSTROEM)
---------------------------------
  O     -0.292571   -0.295297   -0.729145
  C     -1.330287   -1.177709   -0.513081
  C     -2.598142   -0.354062    0.264191
  C     -2.334946    1.016242   -0.130307
  C     -2.709503    1.525615   -1.461125
  Fe     1.366488    0.097098   -0.036122
  Cl     1.693149    2.170413   -0.762463
  C     -1.622715    1.941360    0.759186
  Cl     2.820309   -1.417377   -0.683960
  Cl     1.107723    0.099108    2.199560
  H     -3.495735   -0.725829   -0.237407
  H     -2.397114    2.375958    1.418393
  H     -0.910119    1.434493    1.415777
  H     -1.136128    2.754092    0.216105
  H     -3.006032    2.578963   -1.408349
  H     -1.768082    1.505650   -2.037889
  H     -3.463399    0.929728   -1.974892
  C     -2.669686   -0.599380    1.774528
  H     -3.442565    0.031456    2.227732
  H     -2.940178   -1.639408    1.966193
  H     -1.720268   -0.399764    2.275138
  C     -0.911219   -2.364687    0.353084
  H     -1.729193   -3.074485    0.509542
  H     -0.106637   -2.874796   -0.188619
  H     -0.509506   -2.046137    1.315456
  C     -1.860097   -1.670267   -1.864073
  H     -1.044677   -2.204580   -2.360941
  H     -2.708588   -2.352055   -1.744549
  H     -2.150434   -0.844580   -2.517108

ORBITAL ENERGIES
----------------
                 SPIN UP ORBITALS
  NO   OCC          E(Eh)            E(eV)
   0   1.0000    -261.541209     -7116.8981
   1   1.0000    -104.773168     -2851.0229
   2   1.0000    -104.769316     -2850.9180
   3   1.0000    -104.765624     -2850.8176
   4   1.0000     -32.209097      -876.4541
   5   1.0000     -27.685111      -753.3502
   6   1.0000     -27.684790      -753.3414
   7   1.0000     -27.684491      -753.3333
   8   1.0000     -20.534019      -558.7591
   9   1.0000     -11.410448      -310.4941
  10   1.0000     -11.344955      -308.7119
  11   1.0000     -11.297891      -307.4312
  12   1.0000     -11.291883      -307.2678
  13   1.0000     -11.281630      -306.9888
  14   1.0000     -11.257709      -306.3378
  15   1.0000     -11.240353      -305.8656
  16   1.0000     -11.230978      -305.6104
  17   1.0000     -10.499718      -285.7118
  18   1.0000     -10.495821      -285.6058
  19   1.0000     -10.492164      -285.5063
  20   1.0000      -7.966632      -216.7831
  21   1.0000      -7.965701      -216.7578
  22   1.0000      -7.965667      -216.7568
  23   1.0000      -7.962667      -216.6752
  24   1.0000      -7.961909      -216.6545
  25   1.0000      -7.961799      -216.6516
  26   1.0000      -7.958954      -216.5741
  27   1.0000      -7.958287      -216.5560
  28   1.0000      -7.958194      -216.5535
  29   1.0000      -4.564600      -124.2091
  30   1.0000      -3.177144       -86.4545
  31   1.0000      -3.176680       -86.4418
  32   1.0000      -3.176348       -86.4328
  33   1.0000      -1.357976       -36.9524
  34   1.0000      -1.199581       -32.6422
  35   1.0000      -1.091161       -29.6920
  36   1.0000      -1.044493       -28.4221
  37   1.0000      -1.041233       -28.3334
  38   1.0000      -1.035947       -28.1895
  39   1.0000      -1.032466       -28.0948
  40   1.0000      -1.020444       -27.7677
  41   1.0000      -0.966164       -26.2907
  42   1.0000      -0.933941       -25.4138
  43   1.0000      -0.904443       -24.6111
  44   1.0000      -0.894335       -24.3361
  45   1.0000      -0.894132       -24.3306
  46   1.0000      -0.886813       -24.1314
  47   1.0000      -0.885886       -24.1062
  48   1.0000      -0.800871       -21.7928
  49   1.0000      -0.762908       -20.7598
  50   1.0000      -0.713295       -19.4097
  51   1.0000      -0.692554       -18.8453
  52   1.0000      -0.680419       -18.5151
  53   1.0000      -0.642819       -17.4920
  54   1.0000      -0.637680       -17.3522
  55   1.0000      -0.627461       -17.0741
  56   1.0000      -0.608509       -16.5584
  57   1.0000      -0.601609       -16.3706
  58   1.0000      -0.592643       -16.1266
  59   1.0000      -0.587359       -15.9828
  60   1.0000      -0.575331       -15.6555
  61   1.0000      -0.556134       -15.1332
  62   1.0000      -0.554792       -15.0967
  63   1.0000      -0.538297       -14.6478
  64   1.0000      -0.528903       -14.3922
  65   1.0000      -0.523167       -14.2361
  66   1.0000      -0.502297       -13.6682
  67   1.0000      -0.464559       -12.6413
  68   1.0000      -0.460051       -12.5186
  69   1.0000      -0.442876       -12.0513
  70   1.0000      -0.428730       -11.6663
  71   1.0000      -0.420124       -11.4321
  72   1.0000      -0.418427       -11.3860
  73   1.0000      -0.411987       -11.2107
  74   1.0000      -0.409474       -11.1424
  75   1.0000      -0.407772       -11.0960
  76   1.0000      -0.406410       -11.0590
  77   0.0000       0.000177         0.0048
  78   0.0000       0.004263         0.1160
  79   0.0000       0.018554         0.5049
  80   0.0000       0.019153         0.5212
  81   0.0000       0.030012         0.8167

                 SPIN DOWN ORBITALS
  NO   OCC          E(Eh)            E(eV)
   0   1.0000    -261.537669     -7116.8018
   1   1.0000    -104.771911     -2850.9886
   2   1.0000    -104.768035     -2850.8832
   3   1.0000    -104.764216     -2850.7792
   4   1.0000     -32.047043      -872.0444
   5   1.0000     -27.525223      -748.9994
   6   1.0000     -27.524993      -748.9931
   7   1.0000     -27.524341      -748.9754
   8   1.0000     -20.527614      -558.5848
   9   1.0000     -11.410454      -310.4943
  10   1.0000     -11.344768      -308.7068
  11   1.0000     -11.297887      -307.4311
  12   1.0000     -11.291745      -307.2640
  13   1.0000     -11.281660      -306.9896
  14   1.0000     -11.257719      -306.3381
  15   1.0000     -11.240245      -305.8626
  16   1.0000     -11.230937      -305.6093
  17   1.0000     -10.498356      -285.6748
  18   1.0000     -10.494444      -285.5683
  19   1.0000     -10.490657      -285.4653
  20   1.0000      -7.964161      -216.7158
  21   1.0000      -7.963834      -216.7069
  22   1.0000      -7.963753      -216.7047
  23   1.0000      -7.960394      -216.6133
  24   1.0000      -7.959842      -216.5983
  25   1.0000      -7.959742      -216.5956
  26   1.0000      -7.956660      -216.5117
  27   1.0000      -7.955891      -216.4908
  28   1.0000      -7.955818      -216.4888
  29   1.0000      -4.122406      -112.1764
  30   1.0000      -2.644434       -71.9587
  31   1.0000      -2.644151       -71.9510
  32   1.0000      -2.643412       -71.9309
  33   1.0000      -1.341280       -36.4981
  34   1.0000      -1.198446       -32.6114
  35   1.0000      -1.088561       -29.6213
  36   1.0000      -1.042309       -28.3627
  37   1.0000      -1.028343       -27.9826
  38   1.0000      -1.019972       -27.7549
  39   1.0000      -1.017002       -27.6740
  40   1.0000      -1.012542       -27.5527
  41   1.0000      -0.965360       -26.2688
  42   1.0000      -0.932920       -25.3860
  43   1.0000      -0.804797       -21.8996
  44   1.0000      -0.770547       -20.9677
  45   1.0000      -0.714141       -19.4328
  46   1.0000      -0.692092       -18.8328
  47   1.0000      -0.680907       -18.5284
  48   1.0000      -0.644130       -17.5277
  49   1.0000      -0.638373       -17.3710
  50   1.0000      -0.625796       -17.0288
  51   1.0000      -0.608259       -16.5516
  52   1.0000      -0.601744       -16.3743
  53   1.0000      -0.591475       -16.0949
  54   1.0000      -0.587512       -15.9870
  55   1.0000      -0.573882       -15.6161
  56   1.0000      -0.556032       -15.1304
  57   1.0000      -0.552945       -15.0464
  58   1.0000      -0.537389       -14.6231
  59   1.0000      -0.523411       -14.2427
  60   1.0000      -0.521931       -14.2025
  61   1.0000      -0.496450       -13.5091
  62   1.0000      -0.464991       -12.6531
  63   1.0000      -0.460500       -12.5308
  64   1.0000      -0.448767       -12.2116
  65   1.0000      -0.436352       -11.8737
  66   1.0000      -0.432272       -11.7627
  67   1.0000      -0.427499       -11.6328
  68   1.0000      -0.426362       -11.6019
  69   1.0000      -0.406439       -11.0598
  70   1.0000      -0.396960       -10.8018
  71   1.0000      -0.395021       -10.7491
  72   0.0000       0.000110         0.0030
  73   0.0000       0.004252         0.1157
  74   0.0000       0.018543         0.5046
  75   0.0000       0.019141         0.5209
  76   0.0000       0.030039         0.8174

E(0)                                       ...  -3028.429574279
E(0)                                       ...  -3028.429574279
E(CORR)(strong-pairs)                      ...     -2.868830946
E(CORR)(weak-pairs)                        ...     -0.035942268
E(CORR)(corrected)                         ...     -2.904773214
E(TOT)                                     ...  -3031.334347494
E(CCSD(T))                                 ...  -3031.451774241
FINAL SINGLE POINT ENERGY     -3031.451774241476

DIPOLE MOMENT
-------------
                                X             Y             Z
Electronic contribution:     38.88827       6.33930       1.64722
Nuclear contribution   :    -44.13297      -5.92241      -2.00048
                        -----------------------------------------
Total Dipole Moment    :     -5.24470       0.41688      -0.35326
                        -----------------------------------------
Magnitude (a.u.)       :      5.27309
Magnitude (Debye)      :     13.40313

Rotational constants in cm-1:     0.018906     0.011908     0.010902
Rotational constants in MHz :   566.794015   356.985744   326.835127

                             ****ORCA TERMINATED NORMALLY****
TOTAL RUN TIME: 0 days 21 hours 46 minutes 14 seconds 173 msec
