                         Program Version 4.1.2  - RELEASE  -
|  1> ! aug-cc-pVTZ aug-cc-pVTZ/C DLPNO-CCSD(T1) TightSCF NormalPNO UNO MiniPrint AutoAux
|  2> %pal nproc 10 end
|  3> %maxcore 20000
|  4> %mdci
|  5>      density none
|  6> end
|  7>
|  8> * xyz 0 6
|  9>  O     -0.44279300     -0.15149400     -0.48419400
| 10>  C     -1.42074200     -1.21992400     -0.34644300
| 11>  C     -2.81887000     -0.09511400     -0.20488100
| 12>  C     -1.91029500      1.11761200     -0.28838600
| 13>  C     -1.82586700      1.85103300     -1.58170400
| 14> Fe      1.37076300      0.04471900      0.04427800
| 15> Cl      1.87273200      1.99440800     -0.85636700
| 16>  C     -1.54706100      1.87348900      0.94229900
| 17> Cl      2.39440500     -1.72473100     -0.74442800
| 18> Cl      1.38547300      0.14684600      2.24950900
| 19>  H     -3.40372900     -0.19485000     -1.12213200
| 20>  H     -2.40831800      2.50967900      1.19777100
| 21>  H     -1.34300400      1.22204500      1.79217700
| 22>  H     -0.68472400      2.52057700      0.76744600
| 23>  H     -2.64021600      2.59257400     -1.58959200
| 24>  H     -0.87520100      2.38232300     -1.67145100
| 25>  H     -1.96376900      1.18521800     -2.43547500
| 26>  C     -3.68700800     -0.25941900      1.02770800
| 27>  H     -4.44964500      0.52705700      1.08505300
| 28>  H     -4.21040200     -1.21953200      0.98464600
| 29>  H     -3.10972200     -0.23619200      1.95509000
| 30>  C     -1.19319500     -2.04484800      0.89674000
| 31>  H     -2.00707000     -2.76355900      1.03635500
| 32>  H     -0.25830900     -2.60803000      0.78740200
| 33>  H     -1.10234700     -1.42371700      1.78975500
| 34>  C     -1.47876300     -2.02694600     -1.62172900
| 35>  H     -0.51558400     -2.52900400     -1.77148800
| 36>  H     -2.26544600     -2.78702800     -1.56585000
| 37>  H     -1.66356700     -1.38449500     -2.48713700
| 38> *
| 39>
| 40>
| 41>                          ****END OF INPUT****

CARTESIAN COORDINATES (ANGSTROEM)
---------------------------------
  O     -0.442793   -0.151494   -0.484194
  C     -1.420742   -1.219924   -0.346443
  C     -2.818870   -0.095114   -0.204881
  C     -1.910295    1.117612   -0.288386
  C     -1.825867    1.851033   -1.581704
  Fe     1.370763    0.044719    0.044278
  Cl     1.872732    1.994408   -0.856367
  C     -1.547061    1.873489    0.942299
  Cl     2.394405   -1.724731   -0.744428
  Cl     1.385473    0.146846    2.249509
  H     -3.403729   -0.194850   -1.122132
  H     -2.408318    2.509679    1.197771
  H     -1.343004    1.222045    1.792177
  H     -0.684724    2.520577    0.767446
  H     -2.640216    2.592574   -1.589592
  H     -0.875201    2.382323   -1.671451
  H     -1.963769    1.185218   -2.435475
  C     -3.687008   -0.259419    1.027708
  H     -4.449645    0.527057    1.085053
  H     -4.210402   -1.219532    0.984646
  H     -3.109722   -0.236192    1.955090
  C     -1.193195   -2.044848    0.896740
  H     -2.007070   -2.763559    1.036355
  H     -0.258309   -2.608030    0.787402
  H     -1.102347   -1.423717    1.789755
  C     -1.478763   -2.026946   -1.621729
  H     -0.515584   -2.529004   -1.771488
  H     -2.265446   -2.787028   -1.565850
  H     -1.663567   -1.384495   -2.487137

ORBITAL ENERGIES
----------------
                 SPIN UP ORBITALS
  NO   OCC          E(Eh)            E(eV)
   0   1.0000    -261.554769     -7117.2671
   1   1.0000    -104.780871     -2851.2325
   2   1.0000    -104.778549     -2851.1693
   3   1.0000    -104.777927     -2851.1523
   4   1.0000     -32.222684      -876.8238
   5   1.0000     -27.698711      -753.7202
   6   1.0000     -27.698302      -753.7091
   7   1.0000     -27.698065      -753.7027
   8   1.0000     -20.574793      -559.8686
   9   1.0000     -11.394803      -310.0683
  10   1.0000     -11.347173      -308.7723
  11   1.0000     -11.291299      -307.2519
  12   1.0000     -11.271981      -306.7262
  13   1.0000     -11.270354      -306.6819
  14   1.0000     -11.259627      -306.3900
  15   1.0000     -11.239731      -305.8486
  16   1.0000     -11.238112      -305.8046
  17   1.0000     -10.507492      -285.9234
  18   1.0000     -10.505224      -285.8617
  19   1.0000     -10.504569      -285.8439
  20   1.0000      -7.974311      -216.9920
  21   1.0000      -7.973583      -216.9722
  22   1.0000      -7.973518      -216.9705
  23   1.0000      -7.972103      -216.9320
  24   1.0000      -7.971368      -216.9120
  25   1.0000      -7.971279      -216.9095
  26   1.0000      -7.971243      -216.9086
  27   1.0000      -7.970682      -216.8933
  28   1.0000      -7.970621      -216.8916
  29   1.0000      -4.578000      -124.5737
  30   1.0000      -3.190500       -86.8179
  31   1.0000      -3.190059       -86.8059
  32   1.0000      -3.189516       -86.7912
  33   1.0000      -1.366620       -37.1876
  34   1.0000      -1.157800       -31.5053
  35   1.0000      -1.084839       -29.5200
  36   1.0000      -1.052793       -28.6479
  37   1.0000      -1.046832       -28.4857
  38   1.0000      -1.045606       -28.4524
  39   1.0000      -1.036917       -28.2160
  40   1.0000      -1.004734       -27.3402
  41   1.0000      -0.967791       -26.3349
  42   1.0000      -0.928306       -25.2605
  43   1.0000      -0.907421       -24.6922
  44   1.0000      -0.907349       -24.6902
  45   1.0000      -0.903350       -24.5814
  46   1.0000      -0.898572       -24.4514
  47   1.0000      -0.897905       -24.4332
  48   1.0000      -0.793445       -21.5907
  49   1.0000      -0.756984       -20.5986
  50   1.0000      -0.691938       -18.8286
  51   1.0000      -0.684864       -18.6361
  52   1.0000      -0.667736       -18.1700
  53   1.0000      -0.638571       -17.3764
  54   1.0000      -0.625253       -17.0140
  55   1.0000      -0.622200       -16.9309
  56   1.0000      -0.596808       -16.2400
  57   1.0000      -0.594283       -16.1713
  58   1.0000      -0.587490       -15.9864
  59   1.0000      -0.581150       -15.8139
  60   1.0000      -0.569310       -15.4917
  61   1.0000      -0.559611       -15.2278
  62   1.0000      -0.544348       -14.8125
  63   1.0000      -0.536784       -14.6066
  64   1.0000      -0.531732       -14.4692
  65   1.0000      -0.522288       -14.2122
  66   1.0000      -0.507404       -13.8072
  67   1.0000      -0.483912       -13.1679
  68   1.0000      -0.467453       -12.7200
  69   1.0000      -0.457147       -12.4396
  70   1.0000      -0.438626       -11.9356
  71   1.0000      -0.430364       -11.7108
  72   1.0000      -0.426981       -11.6187
  73   1.0000      -0.420718       -11.4483
  74   1.0000      -0.417825       -11.3696
  75   1.0000      -0.416868       -11.3436
  76   1.0000      -0.406873       -11.0716
  77   0.0000       0.009412         0.2561
  78   0.0000       0.021131         0.5750
  79   0.0000       0.023326         0.6347
  80   0.0000       0.031178         0.8484
  81   0.0000       0.038031         1.0349

                 SPIN DOWN ORBITALS
  NO   OCC          E(Eh)            E(eV)
   0   1.0000    -261.551215     -7117.1704
   1   1.0000    -104.779493     -2851.1950
   2   1.0000    -104.777128     -2851.1306
   3   1.0000    -104.776454     -2851.1123
   4   1.0000     -32.060734      -872.4169
   5   1.0000     -27.538728      -749.3669
   6   1.0000     -27.538595      -749.3633
   7   1.0000     -27.538235      -749.3535
   8   1.0000     -20.569788      -559.7324
   9   1.0000     -11.394836      -310.0693
  10   1.0000     -11.347055      -308.7691
  11   1.0000     -11.291142      -307.2476
  12   1.0000     -11.271962      -306.7257
  13   1.0000     -11.270364      -306.6822
  14   1.0000     -11.259622      -306.3899
  15   1.0000     -11.239697      -305.8477
  16   1.0000     -11.238104      -305.8043
  17   1.0000     -10.506016      -285.8832
  18   1.0000     -10.503699      -285.8202
  19   1.0000     -10.502995      -285.8010
  20   1.0000      -7.971977      -216.9285
  21   1.0000      -7.971298      -216.9100
  22   1.0000      -7.971236      -216.9084
  23   1.0000      -7.969598      -216.8638
  24   1.0000      -7.968990      -216.8472
  25   1.0000      -7.968971      -216.8467
  26   1.0000      -7.968925      -216.8455
  27   1.0000      -7.968179      -216.8252
  28   1.0000      -7.968129      -216.8238
  29   1.0000      -4.135956      -112.5451
  30   1.0000      -2.657864       -72.3242
  31   1.0000      -2.657671       -72.3189
  32   1.0000      -2.656791       -72.2950
  33   1.0000      -1.353488       -36.8303
  34   1.0000      -1.156266       -31.4636
  35   1.0000      -1.082326       -29.4516
  36   1.0000      -1.037919       -28.2432
  37   1.0000      -1.035891       -28.1880
  38   1.0000      -1.026548       -27.9338
  39   1.0000      -1.024667       -27.8826
  40   1.0000      -1.004473       -27.3331
  41   1.0000      -0.967243       -26.3200
  42   1.0000      -0.918359       -24.9898
  43   1.0000      -0.796045       -21.6615
  44   1.0000      -0.760651       -20.6984
  45   1.0000      -0.692009       -18.8305
  46   1.0000      -0.684652       -18.6303
  47   1.0000      -0.668171       -18.1818
  48   1.0000      -0.639246       -17.3948
  49   1.0000      -0.625347       -17.0166
  50   1.0000      -0.620666       -16.8892
  51   1.0000      -0.596560       -16.2332
  52   1.0000      -0.593616       -16.1531
  53   1.0000      -0.587462       -15.9856
  54   1.0000      -0.579229       -15.7616
  55   1.0000      -0.569152       -15.4874
  56   1.0000      -0.559431       -15.2229
  57   1.0000      -0.541179       -14.7262
  58   1.0000      -0.536265       -14.5925
  59   1.0000      -0.530064       -14.4238
  60   1.0000      -0.516819       -14.0634
  61   1.0000      -0.506647       -13.7866
  62   1.0000      -0.479973       -13.0607
  63   1.0000      -0.471533       -12.8311
  64   1.0000      -0.467502       -12.7214
  65   1.0000      -0.441854       -12.0235
  66   1.0000      -0.439050       -11.9472
  67   1.0000      -0.437162       -11.8958
  68   1.0000      -0.430052       -11.7023
  69   1.0000      -0.416850       -11.3431
  70   1.0000      -0.405619       -11.0375
  71   1.0000      -0.403730       -10.9860
  72   0.0000       0.009394         0.2556
  73   0.0000       0.021055         0.5729
  74   0.0000       0.023304         0.6341
  75   0.0000       0.031226         0.8497
  76   0.0000       0.038035         1.0350

E(0)                                       ...  -3028.432880930
E(0)                                       ...  -3028.432880930
E(CORR)(strong-pairs)                      ...     -2.876372305
E(CORR)(weak-pairs)                        ...     -0.035694780
E(CORR)(corrected)                         ...     -2.912067085
E(TOT)                                     ...  -3031.344948015
E(CCSD(T))                                 ...  -3031.464431927
FINAL SINGLE POINT ENERGY     -3031.464431926892

DIPOLE MOMENT
-------------
                                X             Y             Z
Electronic contribution:     40.22016       3.24233       1.85818
Nuclear contribution   :    -44.55316      -2.86777      -2.26676
                        -----------------------------------------
Total Dipole Moment    :     -4.33300       0.37455      -0.40858
                        -----------------------------------------
Magnitude (a.u.)       :      4.36831
Magnitude (Debye)      :     11.10335

Rotational constants in cm-1:     0.018848     0.012082     0.010839
Rotational constants in MHz :   565.044058   362.210587   324.942254

                             ****ORCA TERMINATED NORMALLY****
TOTAL RUN TIME: 0 days 20 hours 58 minutes 21 seconds 773 msec
