                         Program Version 4.1.2  - RELEASE  -
|  1> ! aug-cc-pVTZ aug-cc-pVTZ/C DLPNO-CCSD(T1) TightSCF NormalPNO UNO MiniPrint AutoAux
|  2> %pal nproc 10 end
|  3> %maxcore 20000
|  4> %mdci
|  5>      density none
|  6> end
|  7>
|  8> * xyz 0 6
|  9>  O     -0.30673900     -0.17450200     -0.46675700
| 10>  C     -1.15760200     -1.12224100     -0.23458700
| 11>  C     -2.64994600     -0.24877800      0.86653900
| 12>  C     -3.04984900      0.68088500     -0.07471000
| 13>  C     -4.14305500      0.39907400     -1.05254400
| 14> Fe      1.53303300      0.17553500     -0.09819900
| 15> Cl      1.85779600      2.12560100     -1.04070800
| 16>  C     -2.33495800      1.97588600     -0.20457800
| 17> Cl      2.54592200     -1.54199200     -1.02043000
| 18> Cl      1.81675600      0.23105500      2.08660700
| 19>  H     -3.28536900     -1.12954700      0.95512200
| 20>  H     -2.81466600      2.65494800     -0.91263900
| 21>  H     -2.20283500      2.47812000      0.75898000
| 22>  H     -1.31635400      1.74605300     -0.56798300
| 23>  H     -4.97222500      1.09171000     -0.84892500
| 24>  H     -3.82251400      0.60434400     -2.08156300
| 25>  H     -4.52614000     -0.62110200     -0.98447800
| 26>  C     -1.94130200      0.19109900      2.13418000
| 27>  H     -2.53639100      0.95395900      2.64956300
| 28>  H     -1.81322400     -0.64479300      2.82353000
| 29>  H     -0.95442600      0.61484700      1.93470200
| 30>  C     -0.75124900     -2.17585600      0.78413100
| 31>  H     -1.58410800     -2.81712100      1.08096500
| 32>  H      0.00164200     -2.79517000      0.27829700
| 33>  H     -0.27475800     -1.73723700      1.65993600
| 34>  C     -1.83171700     -1.68363300     -1.47179200
| 35>  H     -1.09684300     -2.34360000     -1.94938200
| 36>  H     -2.72005300     -2.27502400     -1.23687100
| 37>  H     -2.07666500     -0.89618600     -2.18481900
| 38> *
| 39>
| 40>
| 41>                          ****END OF INPUT****

CARTESIAN COORDINATES (ANGSTROEM)
---------------------------------
  O     -0.306739   -0.174502   -0.466757
  C     -1.157602   -1.122241   -0.234587
  C     -2.649946   -0.248778    0.866539
  C     -3.049849    0.680885   -0.074710
  C     -4.143055    0.399074   -1.052544
  Fe     1.533033    0.175535   -0.098199
  Cl     1.857796    2.125601   -1.040708
  C     -2.334958    1.975886   -0.204578
  Cl     2.545922   -1.541992   -1.020430
  Cl     1.816756    0.231055    2.086607
  H     -3.285369   -1.129547    0.955122
  H     -2.814666    2.654948   -0.912639
  H     -2.202835    2.478120    0.758980
  H     -1.316354    1.746053   -0.567983
  H     -4.972225    1.091710   -0.848925
  H     -3.822514    0.604344   -2.081563
  H     -4.526140   -0.621102   -0.984478
  C     -1.941302    0.191099    2.134180
  H     -2.536391    0.953959    2.649563
  H     -1.813224   -0.644793    2.823530
  H     -0.954426    0.614847    1.934702
  C     -0.751249   -2.175856    0.784131
  H     -1.584108   -2.817121    1.080965
  H      0.001642   -2.795170    0.278297
  H     -0.274758   -1.737237    1.659936
  C     -1.831717   -1.683633   -1.471792
  H     -1.096843   -2.343600   -1.949382
  H     -2.720053   -2.275024   -1.236871
  H     -2.076665   -0.896186   -2.184819

ORBITAL ENERGIES
----------------
                 SPIN UP ORBITALS
  NO   OCC          E(Eh)            E(eV)
   0   1.0000    -261.556295     -7117.3086
   1   1.0000    -104.778864     -2851.1778
   2   1.0000    -104.776292     -2851.1078
   3   1.0000    -104.775737     -2851.0928
   4   1.0000     -32.224139      -876.8634
   5   1.0000     -27.700350      -753.7649
   6   1.0000     -27.699629      -753.7452
   7   1.0000     -27.699483      -753.7412
   8   1.0000     -20.575562      -559.8895
   9   1.0000     -11.397437      -310.1400
  10   1.0000     -11.336058      -308.4698
  11   1.0000     -11.278771      -306.9110
  12   1.0000     -11.272204      -306.7323
  13   1.0000     -11.262170      -306.4592
  14   1.0000     -11.257766      -306.3394
  15   1.0000     -11.256424      -306.3029
  16   1.0000     -11.246349      -306.0287
  17   1.0000     -10.505517      -285.8696
  18   1.0000     -10.502924      -285.7991
  19   1.0000     -10.502335      -285.7831
  20   1.0000      -7.972371      -216.9393
  21   1.0000      -7.971571      -216.9175
  22   1.0000      -7.971545      -216.9168
  23   1.0000      -7.969791      -216.8690
  24   1.0000      -7.969148      -216.8516
  25   1.0000      -7.969023      -216.8481
  26   1.0000      -7.968941      -216.8459
  27   1.0000      -7.968462      -216.8329
  28   1.0000      -7.968371      -216.8304
  29   1.0000      -4.579382      -124.6113
  30   1.0000      -3.192306       -86.8671
  31   1.0000      -3.191119       -86.8348
  32   1.0000      -3.190811       -86.8264
  33   1.0000      -1.416754       -38.5518
  34   1.0000      -1.168817       -31.8051
  35   1.0000      -1.083210       -29.4757
  36   1.0000      -1.050805       -28.5939
  37   1.0000      -1.045628       -28.4530
  38   1.0000      -1.043161       -28.3859
  39   1.0000      -1.039940       -28.2982
  40   1.0000      -0.994950       -27.0740
  41   1.0000      -0.989183       -26.9170
  42   1.0000      -0.925850       -25.1936
  43   1.0000      -0.918094       -24.9826
  44   1.0000      -0.908652       -24.7257
  45   1.0000      -0.908613       -24.7246
  46   1.0000      -0.898847       -24.4589
  47   1.0000      -0.898459       -24.4483
  48   1.0000      -0.793768       -21.5995
  49   1.0000      -0.761257       -20.7149
  50   1.0000      -0.691217       -18.8090
  51   1.0000      -0.686500       -18.6806
  52   1.0000      -0.677353       -18.4317
  53   1.0000      -0.671781       -18.2801
  54   1.0000      -0.650297       -17.6955
  55   1.0000      -0.625656       -17.0250
  56   1.0000      -0.603745       -16.4287
  57   1.0000      -0.595777       -16.2119
  58   1.0000      -0.585649       -15.9363
  59   1.0000      -0.578193       -15.7334
  60   1.0000      -0.569919       -15.5083
  61   1.0000      -0.566684       -15.4203
  62   1.0000      -0.559023       -15.2118
  63   1.0000      -0.543770       -14.7967
  64   1.0000      -0.534647       -14.5485
  65   1.0000      -0.523242       -14.2381
  66   1.0000      -0.516069       -14.0430
  67   1.0000      -0.481041       -13.0898
  68   1.0000      -0.464626       -12.6431
  69   1.0000      -0.456469       -12.4211
  70   1.0000      -0.432015       -11.7557
  71   1.0000      -0.427845       -11.6422
  72   1.0000      -0.425199       -11.5703
  73   1.0000      -0.416985       -11.3467
  74   1.0000      -0.415232       -11.2990
  75   1.0000      -0.414639       -11.2829
  76   1.0000      -0.384734       -10.4691
  77   0.0000       0.008040         0.2188
  78   0.0000       0.019863         0.5405
  79   0.0000       0.020703         0.5634
  80   0.0000       0.024733         0.6730
  81   0.0000       0.031662         0.8616

                 SPIN DOWN ORBITALS
  NO   OCC          E(Eh)            E(eV)
   0   1.0000    -261.552734     -7117.2117
   1   1.0000    -104.777424     -2851.1387
   2   1.0000    -104.774819     -2851.0678
   3   1.0000    -104.774279     -2851.0531
   4   1.0000     -32.062068      -872.4532
   5   1.0000     -27.540039      -749.4026
   6   1.0000     -27.539965      -749.4005
   7   1.0000     -27.539657      -749.3922
   8   1.0000     -20.571339      -559.7746
   9   1.0000     -11.397414      -310.1394
  10   1.0000     -11.335331      -308.4500
  11   1.0000     -11.278868      -306.9136
  12   1.0000     -11.272508      -306.7405
  13   1.0000     -11.262068      -306.4564
  14   1.0000     -11.257859      -306.3419
  15   1.0000     -11.256437      -306.3032
  16   1.0000     -11.246335      -306.0283
  17   1.0000     -10.503974      -285.8277
  18   1.0000     -10.501348      -285.7562
  19   1.0000     -10.500780      -285.7407
  20   1.0000      -7.969872      -216.8713
  21   1.0000      -7.969233      -216.8538
  22   1.0000      -7.969169      -216.8521
  23   1.0000      -7.967255      -216.8000
  24   1.0000      -7.966754      -216.7864
  25   1.0000      -7.966604      -216.7823
  26   1.0000      -7.966509      -216.7797
  27   1.0000      -7.966000      -216.7659
  28   1.0000      -7.965901      -216.7632
  29   1.0000      -4.137067      -112.5753
  30   1.0000      -2.658755       -72.3484
  31   1.0000      -2.658698       -72.3468
  32   1.0000      -2.658079       -72.3300
  33   1.0000      -1.405950       -38.2578
  34   1.0000      -1.167263       -31.7628
  35   1.0000      -1.080719       -29.4078
  36   1.0000      -1.040826       -28.3223
  37   1.0000      -1.035353       -28.1734
  38   1.0000      -1.023733       -27.8572
  39   1.0000      -1.021933       -27.8082
  40   1.0000      -0.994900       -27.0726
  41   1.0000      -0.988559       -26.9000
  42   1.0000      -0.919208       -25.0129
  43   1.0000      -0.808202       -21.9923
  44   1.0000      -0.761605       -20.7243
  45   1.0000      -0.692970       -18.8567
  46   1.0000      -0.686280       -18.6746
  47   1.0000      -0.678456       -18.4617
  48   1.0000      -0.670659       -18.2496
  49   1.0000      -0.650113       -17.6905
  50   1.0000      -0.624903       -17.0045
  51   1.0000      -0.603376       -16.4187
  52   1.0000      -0.595343       -16.2001
  53   1.0000      -0.585552       -15.9337
  54   1.0000      -0.578148       -15.7322
  55   1.0000      -0.569433       -15.4951
  56   1.0000      -0.566530       -15.4161
  57   1.0000      -0.558920       -15.2090
  58   1.0000      -0.543118       -14.7790
  59   1.0000      -0.532233       -14.4828
  60   1.0000      -0.522789       -14.2258
  61   1.0000      -0.507224       -13.8023
  62   1.0000      -0.478901       -13.0316
  63   1.0000      -0.469101       -12.7649
  64   1.0000      -0.467016       -12.7082
  65   1.0000      -0.440068       -11.9748
  66   1.0000      -0.436953       -11.8901
  67   1.0000      -0.434911       -11.8345
  68   1.0000      -0.422150       -11.4873
  69   1.0000      -0.414944       -11.2912
  70   1.0000      -0.400428       -10.8962
  71   1.0000      -0.382587       -10.4107
  72   0.0000       0.008045         0.2189
  73   0.0000       0.019877         0.5409
  74   0.0000       0.020802         0.5661
  75   0.0000       0.024687         0.6718
  76   0.0000       0.031399         0.8544

E(0)                                       ...  -3028.433033392
E(0)                                       ...  -3028.433033392
E(CORR)(strong-pairs)                      ...     -2.874635256
E(CORR)(weak-pairs)                        ...     -0.035838013
E(CORR)(corrected)                         ...     -2.910473269
E(TOT)                                     ...  -3031.343506661
E(CCSD(T))                                 ...  -3031.464130647
FINAL SINGLE POINT ENERGY     -3031.464130647036

DIPOLE MOMENT
-------------
                                X             Y             Z
Electronic contribution:     44.05567       5.94014      -1.72080
Nuclear contribution   :    -48.91312      -6.70198       1.64411
                        -----------------------------------------
Total Dipole Moment    :     -4.85745      -0.76184      -0.07668
                        -----------------------------------------
Magnitude (a.u.)       :      4.91743
Magnitude (Debye)      :     12.49911

Rotational constants in cm-1:     0.019859     0.010102     0.009669
Rotational constants in MHz :   595.350652   302.862807   289.877497

                             ****ORCA TERMINATED NORMALLY****
TOTAL RUN TIME: 0 days 18 hours 36 minutes 10 seconds 437 msec
