                         Program Version 4.1.2  - RELEASE  -
|  1> ! aug-cc-pVTZ aug-cc-pVTZ/C DLPNO-CCSD(T1) TightSCF NormalPNO UNO MiniPrint AutoAux
|  2> %pal nproc 10 end
|  3> %maxcore 20000
|  4> %mdci
|  5>      density none
|  6> end
|  7>
|  8> * xyz 0 6
|  9>  O     -0.30081100     -0.18931100     -0.76478300
| 10>  C     -1.17224900     -1.11718000     -0.62764100
| 11>  C     -2.94148100     -0.17036500      0.39013200
| 12>  C     -2.47172100      0.99366900     -0.14012300
| 13>  C     -2.83249800      1.44362100     -1.52165500
| 14> Fe      1.43453600      0.11234800      0.01344000
| 15> Cl      2.05851200      2.04049200     -0.80615100
| 16>  C     -1.58485200      1.93637400      0.60551300
| 17> Cl      2.58582800     -1.63037300     -0.65618400
| 18> Cl      1.18641000      0.13728900      2.20885000
| 19>  H     -3.68139400     -0.71383300     -0.19421700
| 20>  H     -2.18074700      2.81246200      0.89932000
| 21>  H     -1.14433300      1.51103200      1.50583400
| 22>  H     -0.78095300      2.30578100     -0.04031700
| 23>  H     -3.22849900      2.46586200     -1.47542400
| 24>  H     -1.93164200      1.48946200     -2.14726000
| 25>  H     -3.58177500      0.80777400     -1.99830000
| 26>  C     -2.90972500     -0.50590100      1.86208100
| 27>  H     -3.71866300      0.03022000      2.37518700
| 28>  H     -3.07440800     -1.57238900      2.03381700
| 29>  H     -1.97173500     -0.22477600      2.34646100
| 30>  C     -0.94392400     -2.18249700      0.41219300
| 31>  H     -1.81262500     -2.82854400      0.54539100
| 32>  H     -0.11539400     -2.79085900      0.02102800
| 33>  H     -0.61870400     -1.76992300      1.36639600
| 34>  C     -1.85045200     -1.57886500     -1.89553400
| 35>  H     -1.11781200     -2.22860100     -2.39402800
| 36>  H     -2.75017800     -2.16595300     -1.70387300
| 37>  H     -2.06390500     -0.75334300     -2.57174400
| 38> *
| 39>
| 40>
| 41>                          ****END OF INPUT****

CARTESIAN COORDINATES (ANGSTROEM)
---------------------------------
  O     -0.300811   -0.189311   -0.764783
  C     -1.172249   -1.117180   -0.627641
  C     -2.941481   -0.170365    0.390132
  C     -2.471721    0.993669   -0.140123
  C     -2.832498    1.443621   -1.521655
  Fe     1.434536    0.112348    0.013440
  Cl     2.058512    2.040492   -0.806151
  C     -1.584852    1.936374    0.605513
  Cl     2.585828   -1.630373   -0.656184
  Cl     1.186410    0.137289    2.208850
  H     -3.681394   -0.713833   -0.194217
  H     -2.180747    2.812462    0.899320
  H     -1.144333    1.511032    1.505834
  H     -0.780953    2.305781   -0.040317
  H     -3.228499    2.465862   -1.475424
  H     -1.931642    1.489462   -2.147260
  H     -3.581775    0.807774   -1.998300
  C     -2.909725   -0.505901    1.862081
  H     -3.718663    0.030220    2.375187
  H     -3.074408   -1.572389    2.033817
  H     -1.971735   -0.224776    2.346461
  C     -0.943924   -2.182497    0.412193
  H     -1.812625   -2.828544    0.545391
  H     -0.115394   -2.790859    0.021028
  H     -0.618704   -1.769923    1.366396
  C     -1.850452   -1.578865   -1.895534
  H     -1.117812   -2.228601   -2.394028
  H     -2.750178   -2.165953   -1.703873
  H     -2.063905   -0.753343   -2.571744

ORBITAL ENERGIES
----------------
                 SPIN UP ORBITALS
  NO   OCC          E(Eh)            E(eV)
   0   1.0000    -261.565655     -7117.5633
   1   1.0000    -104.786971     -2851.3984
   2   1.0000    -104.783296     -2851.2984
   3   1.0000    -104.782520     -2851.2773
   4   1.0000     -32.233464      -877.1172
   5   1.0000     -27.709705      -754.0194
   6   1.0000     -27.708945      -753.9987
   7   1.0000     -27.708769      -753.9939
   8   1.0000     -20.589047      -560.2565
   9   1.0000     -11.413564      -310.5789
  10   1.0000     -11.304582      -307.6133
  11   1.0000     -11.269613      -306.6618
  12   1.0000     -11.263058      -306.4834
  13   1.0000     -11.259328      -306.3819
  14   1.0000     -11.256879      -306.3152
  15   1.0000     -11.246662      -306.0372
  16   1.0000     -11.242066      -305.9122
  17   1.0000     -10.513640      -286.0907
  18   1.0000     -10.509948      -285.9902
  19   1.0000     -10.509130      -285.9680
  20   1.0000      -7.980501      -217.1605
  21   1.0000      -7.979688      -217.1383
  22   1.0000      -7.979651      -217.1373
  23   1.0000      -7.976817      -217.0602
  24   1.0000      -7.976043      -217.0392
  25   1.0000      -7.975976      -217.0374
  26   1.0000      -7.975931      -217.0361
  27   1.0000      -7.975246      -217.0175
  28   1.0000      -7.975186      -217.0158
  29   1.0000      -4.588557      -124.8610
  30   1.0000      -3.201459       -87.1161
  31   1.0000      -3.200234       -87.0828
  32   1.0000      -3.199966       -87.0755
  33   1.0000      -1.436488       -39.0888
  34   1.0000      -1.149720       -31.2855
  35   1.0000      -1.092589       -29.7309
  36   1.0000      -1.058962       -28.8158
  37   1.0000      -1.053292       -28.6615
  38   1.0000      -1.050774       -28.5930
  39   1.0000      -1.031961       -28.0811
  40   1.0000      -1.001290       -27.2465
  41   1.0000      -0.974590       -26.5199
  42   1.0000      -0.933686       -25.4069
  43   1.0000      -0.917701       -24.9719
  44   1.0000      -0.917612       -24.9695
  45   1.0000      -0.912476       -24.8297
  46   1.0000      -0.907753       -24.7012
  47   1.0000      -0.907073       -24.6827
  48   1.0000      -0.800437       -21.7810
  49   1.0000      -0.746581       -20.3155
  50   1.0000      -0.697514       -18.9803
  51   1.0000      -0.690995       -18.8029
  52   1.0000      -0.684621       -18.6295
  53   1.0000      -0.667285       -18.1577
  54   1.0000      -0.636137       -17.3102
  55   1.0000      -0.621813       -16.9204
  56   1.0000      -0.604466       -16.4484
  57   1.0000      -0.596898       -16.2424
  58   1.0000      -0.582969       -15.8634
  59   1.0000      -0.574033       -15.6202
  60   1.0000      -0.565815       -15.3966
  61   1.0000      -0.558457       -15.1964
  62   1.0000      -0.552787       -15.0421
  63   1.0000      -0.548819       -14.9341
  64   1.0000      -0.539852       -14.6901
  65   1.0000      -0.525951       -14.3118
  66   1.0000      -0.509855       -13.8739
  67   1.0000      -0.490952       -13.3595
  68   1.0000      -0.470679       -12.8078
  69   1.0000      -0.466934       -12.7059
  70   1.0000      -0.438870       -11.9423
  71   1.0000      -0.434244       -11.8164
  72   1.0000      -0.432647       -11.7729
  73   1.0000      -0.423839       -11.5332
  74   1.0000      -0.422638       -11.5006
  75   1.0000      -0.421768       -11.4769
  76   1.0000      -0.371275       -10.1029
  77   0.0000       0.011710         0.3187
  78   0.0000       0.021981         0.5981
  79   0.0000       0.023009         0.6261
  80   0.0000       0.030160         0.8207
  81   0.0000       0.038276         1.0415

                 SPIN DOWN ORBITALS
  NO   OCC          E(Eh)            E(eV)
   0   1.0000    -261.562095     -7117.4665
   1   1.0000    -104.785550     -2851.3598
   2   1.0000    -104.781788     -2851.2574
   3   1.0000    -104.781037     -2851.2370
   4   1.0000     -32.071418      -872.7077
   5   1.0000     -27.549359      -749.6562
   6   1.0000     -27.549302      -749.6546
   7   1.0000     -27.549052      -749.6478
   8   1.0000     -20.584899      -560.1436
   9   1.0000     -11.413482      -310.5766
  10   1.0000     -11.304476      -307.6104
  11   1.0000     -11.269500      -306.6587
  12   1.0000     -11.263045      -306.4830
  13   1.0000     -11.259279      -306.3806
  14   1.0000     -11.256891      -306.3156
  15   1.0000     -11.246667      -306.0374
  16   1.0000     -11.242102      -305.9132
  17   1.0000     -10.512117      -286.0492
  18   1.0000     -10.508337      -285.9464
  19   1.0000     -10.507550      -285.9250
  20   1.0000      -7.978005      -217.0926
  21   1.0000      -7.977391      -217.0758
  22   1.0000      -7.977333      -217.0743
  23   1.0000      -7.974232      -216.9899
  24   1.0000      -7.973562      -216.9716
  25   1.0000      -7.973533      -216.9709
  26   1.0000      -7.973472      -216.9692
  27   1.0000      -7.972725      -216.9489
  28   1.0000      -7.972641      -216.9466
  29   1.0000      -4.146291      -112.8263
  30   1.0000      -2.667925       -72.5979
  31   1.0000      -2.667910       -72.5975
  32   1.0000      -2.667229       -72.5790
  33   1.0000      -1.426028       -38.8042
  34   1.0000      -1.149106       -31.2688
  35   1.0000      -1.089956       -29.6592
  36   1.0000      -1.044091       -28.4112
  37   1.0000      -1.032256       -28.0891
  38   1.0000      -1.031237       -28.0614
  39   1.0000      -1.028920       -27.9983
  40   1.0000      -1.000464       -27.2240
  41   1.0000      -0.974475       -26.5168
  42   1.0000      -0.913130       -24.8475
  43   1.0000      -0.813651       -22.1406
  44   1.0000      -0.746693       -20.3186
  45   1.0000      -0.700267       -19.0552
  46   1.0000      -0.690668       -18.7940
  47   1.0000      -0.683406       -18.5964
  48   1.0000      -0.666960       -18.1489
  49   1.0000      -0.636043       -17.3076
  50   1.0000      -0.621317       -16.9069
  51   1.0000      -0.603931       -16.4338
  52   1.0000      -0.596869       -16.2416
  53   1.0000      -0.582747       -15.8573
  54   1.0000      -0.573322       -15.6009
  55   1.0000      -0.565533       -15.3889
  56   1.0000      -0.558346       -15.1934
  57   1.0000      -0.552422       -15.0322
  58   1.0000      -0.546253       -14.8643
  59   1.0000      -0.538565       -14.6551
  60   1.0000      -0.515501       -14.0275
  61   1.0000      -0.509658       -13.8685
  62   1.0000      -0.490740       -13.3537
  63   1.0000      -0.477243       -12.9865
  64   1.0000      -0.475544       -12.9402
  65   1.0000      -0.447011       -12.1638
  66   1.0000      -0.444173       -12.0866
  67   1.0000      -0.441783       -12.0215
  68   1.0000      -0.426339       -11.6013
  69   1.0000      -0.422517       -11.4973
  70   1.0000      -0.407715       -11.0945
  71   1.0000      -0.369666       -10.0591
  72   0.0000       0.011700         0.3184
  73   0.0000       0.021958         0.5975
  74   0.0000       0.022992         0.6256
  75   0.0000       0.030100         0.8191
  76   0.0000       0.038041         1.0352

E(0)                                       ...  -3028.438929249
E(0)                                       ...  -3028.438929249
E(CORR)(strong-pairs)                      ...     -2.873276371
E(CORR)(weak-pairs)                        ...     -0.035971550
E(CORR)(corrected)                         ...     -2.909247921
E(TOT)                                     ...  -3031.348177170
E(CCSD(T))                                 ...  -3031.467783097
FINAL SINGLE POINT ENERGY     -3031.467783096520

DIPOLE MOMENT
-------------
                                X             Y             Z
Electronic contribution:     41.91412       3.87092       1.87541
Nuclear contribution   :    -45.87158      -4.66504      -2.46974
                        -----------------------------------------
Total Dipole Moment    :     -3.95747      -0.79412      -0.59433
                        -----------------------------------------
Magnitude (a.u.)       :      4.07988
Magnitude (Debye)      :     10.37022

Rotational constants in cm-1:     0.019119     0.011201     0.010536
Rotational constants in MHz :   573.183016   335.792380   315.874312

                             ****ORCA TERMINATED NORMALLY****
TOTAL RUN TIME: 0 days 20 hours 16 minutes 14 seconds 619 msec
