                         Program Version 4.1.2  - RELEASE  -
|  1> ! aug-cc-pVTZ aug-cc-pVTZ/C DLPNO-CCSD(T1) TightSCF NormalPNO UNO MiniPrint AutoAux
|  2> %pal nproc 10 end
|  3> %maxcore 20000
|  4> %mdci
|  5>      density none
|  6> end
|  7>
|  8> * xyz 0 6
|  9>  O     -0.32229200     -0.08248100     -0.40505400
| 10>  C     -1.27009400     -1.04492700     -0.23354700
| 11>  C     -2.48638600     -0.43180400      0.69770100
| 12>  C     -2.98282500      0.70891400     -0.03730300
| 13>  C     -4.16197900      0.59478300     -0.92855000
| 14> Fe      1.49936000      0.17215900     -0.08495000
| 15> Cl      1.78207000      2.24168000     -0.79840200
| 16>  C     -2.20270300      1.92710800     -0.04138500
| 17> Cl      2.54863900     -1.40117800     -1.21222500
| 18> Cl      1.82182400      0.00769800      2.10259100
| 19>  H     -3.23672100     -1.22755300      0.71793400
| 20>  H     -2.60819600      2.74329900     -0.63904400
| 21>  H     -1.88057000      2.25937700      0.94951200
| 22>  H     -1.23181300      1.53481500     -0.47976400
| 23>  H     -4.98736300      1.13717600     -0.43870400
| 24>  H     -3.99358900      1.10266900     -1.88521800
| 25>  H     -4.48174500     -0.43547100     -1.09075900
| 26>  C     -1.95999600     -0.11357300      2.10872100
| 27>  H     -2.65602400      0.54250500      2.64068800
| 28>  H     -1.86667100     -1.03459600      2.68593400
| 29>  H     -0.97709900      0.35992500      2.07448500
| 30>  C     -0.73156100     -2.26051100      0.54625100
| 31>  H     -1.52713600     -2.97687200      0.77425400
| 32>  H      0.01208800     -2.74848800     -0.09127700
| 33>  H     -0.23188500     -1.95850200      1.46704500
| 34>  C     -1.80357700     -1.49607700     -1.60233800
| 35>  H     -0.98872200     -2.00099100     -2.12833000
| 36>  H     -2.64359000     -2.19374600     -1.51200400
| 37>  H     -2.10431500     -0.64271100     -2.21629600
| 38> *
| 39>
| 40>
| 41>                          ****END OF INPUT****

CARTESIAN COORDINATES (ANGSTROEM)
---------------------------------
  O     -0.322292   -0.082481   -0.405054
  C     -1.270094   -1.044927   -0.233547
  C     -2.486386   -0.431804    0.697701
  C     -2.982825    0.708914   -0.037303
  C     -4.161979    0.594783   -0.928550
  Fe     1.499360    0.172159   -0.084950
  Cl     1.782070    2.241680   -0.798402
  C     -2.202703    1.927108   -0.041385
  Cl     2.548639   -1.401178   -1.212225
  Cl     1.821824    0.007698    2.102591
  H     -3.236721   -1.227553    0.717934
  H     -2.608196    2.743299   -0.639044
  H     -1.880570    2.259377    0.949512
  H     -1.231813    1.534815   -0.479764
  H     -4.987363    1.137176   -0.438704
  H     -3.993589    1.102669   -1.885218
  H     -4.481745   -0.435471   -1.090759
  C     -1.959996   -0.113573    2.108721
  H     -2.656024    0.542505    2.640688
  H     -1.866671   -1.034596    2.685934
  H     -0.977099    0.359925    2.074485
  C     -0.731561   -2.260511    0.546251
  H     -1.527136   -2.976872    0.774254
  H      0.012088   -2.748488   -0.091277
  H     -0.231885   -1.958502    1.467045
  C     -1.803577   -1.496077   -1.602338
  H     -0.988722   -2.000991   -2.128330
  H     -2.643590   -2.193746   -1.512004
  H     -2.104315   -0.642711   -2.216296

ORBITAL ENERGIES
----------------
                 SPIN UP ORBITALS
  NO   OCC          E(Eh)            E(eV)
   0   1.0000    -261.537488     -7116.7969
   1   1.0000    -104.766079     -2850.8300
   2   1.0000    -104.764994     -2850.8004
   3   1.0000    -104.762970     -2850.7454
   4   1.0000     -32.205418      -876.3540
   5   1.0000     -27.681280      -753.2459
   6   1.0000     -27.681139      -753.2421
   7   1.0000     -27.680900      -753.2356
   8   1.0000     -20.534913      -558.7834
   9   1.0000     -11.405386      -310.3563
  10   1.0000     -11.341500      -308.6179
  11   1.0000     -11.311122      -307.7913
  12   1.0000     -11.293189      -307.3033
  13   1.0000     -11.280393      -306.9551
  14   1.0000     -11.256036      -306.2923
  15   1.0000     -11.243909      -305.9623
  16   1.0000     -11.232056      -305.6398
  17   1.0000     -10.492686      -285.5205
  18   1.0000     -10.491565      -285.4900
  19   1.0000     -10.489577      -285.4359
  20   1.0000      -7.959561      -216.5907
  21   1.0000      -7.958737      -216.5682
  22   1.0000      -7.958678      -216.5666
  23   1.0000      -7.958397      -216.5590
  24   1.0000      -7.957667      -216.5391
  25   1.0000      -7.957566      -216.5364
  26   1.0000      -7.956414      -216.5050
  27   1.0000      -7.955677      -216.4850
  28   1.0000      -7.955597      -216.4828
  29   1.0000      -4.560905      -124.1085
  30   1.0000      -3.173403       -86.3527
  31   1.0000      -3.173072       -86.3437
  32   1.0000      -3.172540       -86.3292
  33   1.0000      -1.364726       -37.1361
  34   1.0000      -1.207073       -32.8461
  35   1.0000      -1.091924       -29.7128
  36   1.0000      -1.047641       -28.5078
  37   1.0000      -1.036891       -28.2152
  38   1.0000      -1.031762       -28.0757
  39   1.0000      -1.029714       -28.0199
  40   1.0000      -1.023601       -27.8536
  41   1.0000      -0.966221       -26.2922
  42   1.0000      -0.932832       -25.3837
  43   1.0000      -0.902973       -24.5711
  44   1.0000      -0.890535       -24.2327
  45   1.0000      -0.890441       -24.2301
  46   1.0000      -0.882108       -24.0034
  47   1.0000      -0.881785       -23.9946
  48   1.0000      -0.807620       -21.9764
  49   1.0000      -0.768978       -20.9250
  50   1.0000      -0.717881       -19.5345
  51   1.0000      -0.699264       -19.0279
  52   1.0000      -0.679284       -18.4842
  53   1.0000      -0.650217       -17.6933
  54   1.0000      -0.646285       -17.5863
  55   1.0000      -0.637157       -17.3379
  56   1.0000      -0.613558       -16.6958
  57   1.0000      -0.599874       -16.3234
  58   1.0000      -0.592770       -16.1301
  59   1.0000      -0.582307       -15.8454
  60   1.0000      -0.573734       -15.6121
  61   1.0000      -0.562145       -15.2967
  62   1.0000      -0.552285       -15.0285
  63   1.0000      -0.538531       -14.6542
  64   1.0000      -0.529199       -14.4002
  65   1.0000      -0.514012       -13.9870
  66   1.0000      -0.498421       -13.5627
  67   1.0000      -0.462738       -12.5917
  68   1.0000      -0.457833       -12.4583
  69   1.0000      -0.437507       -11.9052
  70   1.0000      -0.430681       -11.7194
  71   1.0000      -0.416923       -11.3450
  72   1.0000      -0.412727       -11.2309
  73   1.0000      -0.408359       -11.1120
  74   1.0000      -0.404769       -11.0143
  75   1.0000      -0.403664       -10.9842
  76   1.0000      -0.402712       -10.9583
  77   0.0000      -0.005501        -0.1497
  78   0.0000      -0.000070        -0.0019
  79   0.0000       0.016492         0.4488
  80   0.0000       0.016995         0.4624
  81   0.0000       0.026561         0.7227

                 SPIN DOWN ORBITALS
  NO   OCC          E(Eh)            E(eV)
   0   1.0000    -261.533941     -7116.7003
   1   1.0000    -104.764724     -2850.7931
   2   1.0000    -104.763651     -2850.7639
   3   1.0000    -104.761560     -2850.7070
   4   1.0000     -32.043349      -871.9438
   5   1.0000     -27.521434      -748.8963
   6   1.0000     -27.521263      -748.8916
   7   1.0000     -27.520764      -748.8780
   8   1.0000     -20.529120      -558.6258
   9   1.0000     -11.405370      -310.3559
  10   1.0000     -11.341341      -308.6136
  11   1.0000     -11.311126      -307.7914
  12   1.0000     -11.293071      -307.3001
  13   1.0000     -11.280392      -306.9551
  14   1.0000     -11.256061      -306.2930
  15   1.0000     -11.243817      -305.9598
  16   1.0000     -11.232021      -305.6388
  17   1.0000     -10.491227      -285.4808
  18   1.0000     -10.490125      -285.4508
  19   1.0000     -10.488064      -285.3947
  20   1.0000      -7.957120      -216.5242
  21   1.0000      -7.956582      -216.5096
  22   1.0000      -7.956508      -216.5076
  23   1.0000      -7.956083      -216.4960
  24   1.0000      -7.955467      -216.4793
  25   1.0000      -7.955360      -216.4763
  26   1.0000      -7.954017      -216.4398
  27   1.0000      -7.953342      -216.4214
  28   1.0000      -7.953266      -216.4194
  29   1.0000      -4.118657      -112.0744
  30   1.0000      -2.640569       -71.8535
  31   1.0000      -2.640477       -71.8510
  32   1.0000      -2.639547       -71.8257
  33   1.0000      -1.350039       -36.7364
  34   1.0000      -1.205975       -32.8163
  35   1.0000      -1.089431       -29.6449
  36   1.0000      -1.046909       -28.4878
  37   1.0000      -1.023630       -27.8544
  38   1.0000      -1.021536       -27.7974
  39   1.0000      -1.011626       -27.5277
  40   1.0000      -1.009723       -27.4760
  41   1.0000      -0.965587       -26.2750
  42   1.0000      -0.932506       -25.3748
  43   1.0000      -0.812342       -22.1049
  44   1.0000      -0.776152       -21.1202
  45   1.0000      -0.718601       -19.5541
  46   1.0000      -0.698800       -19.0153
  47   1.0000      -0.679474       -18.4894
  48   1.0000      -0.649977       -17.6868
  49   1.0000      -0.647601       -17.6221
  50   1.0000      -0.636425       -17.3180
  51   1.0000      -0.613588       -16.6966
  52   1.0000      -0.599757       -16.3202
  53   1.0000      -0.592684       -16.1278
  54   1.0000      -0.580973       -15.8091
  55   1.0000      -0.572392       -15.5756
  56   1.0000      -0.561721       -15.2852
  57   1.0000      -0.552298       -15.0288
  58   1.0000      -0.538547       -14.6546
  59   1.0000      -0.526868       -14.3368
  60   1.0000      -0.510130       -13.8813
  61   1.0000      -0.492942       -13.4136
  62   1.0000      -0.460347       -12.5267
  63   1.0000      -0.458053       -12.4643
  64   1.0000      -0.443578       -12.0704
  65   1.0000      -0.438368       -11.9286
  66   1.0000      -0.427318       -11.6279
  67   1.0000      -0.424081       -11.5398
  68   1.0000      -0.423156       -11.5147
  69   1.0000      -0.402377       -10.9492
  70   1.0000      -0.395475       -10.7614
  71   1.0000      -0.389686       -10.6039
  72   0.0000      -0.005610        -0.1527
  73   0.0000      -0.000077        -0.0021
  74   0.0000       0.016484         0.4485
  75   0.0000       0.016981         0.4621
  76   0.0000       0.026577         0.7232

E(0)                                       ...  -3028.425007279
E(0)                                       ...  -3028.425007279
E(CORR)(strong-pairs)                      ...     -2.873630069
E(CORR)(weak-pairs)                        ...     -0.035222842
E(CORR)(corrected)                         ...     -2.908852911
E(TOT)                                     ...  -3031.333860190
E(CCSD(T))                                 ...  -3031.452569899
FINAL SINGLE POINT ENERGY     -3031.452569898755

DIPOLE MOMENT
-------------
                                X             Y             Z
Electronic contribution:     42.02829       7.12817      -1.00508
Nuclear contribution   :    -48.12557      -7.14229       0.97848
                        -----------------------------------------
Total Dipole Moment    :     -6.09728      -0.01412      -0.02660
                        -----------------------------------------
Magnitude (a.u.)       :      6.09735
Magnitude (Debye)      :     15.49824

Rotational constants in cm-1:     0.020118     0.010357     0.009877
Rotational constants in MHz :   603.130543   310.501204   296.097238

                             ****ORCA TERMINATED NORMALLY****
TOTAL RUN TIME: 0 days 20 hours 27 minutes 36 seconds 510 msec
