                         Program Version 4.1.2  - RELEASE  -
|  1> ! aug-cc-pVTZ aug-cc-pVTZ/C DLPNO-CCSD(T1) TightSCF NormalPNO UNO MiniPrint AutoAux
|  2> %pal nproc 10 end
|  3> %maxcore 20000
|  4> %mdci
|  5>      density none
|  6> end
|  7>
|  8> * xyz 0 6
|  9>  O     -0.38031700     -0.10793700     -0.48220400
| 10>  C     -1.30818700     -1.11083800     -0.41577500
| 11>  C     -2.97811100     -0.04109700     -0.15692400
| 12>  C     -2.10007200      1.07639500     -0.25912300
| 13>  C     -1.90734000      1.76374300     -1.56513700
| 14> Fe      1.40930300      0.05075100      0.05018600
| 15> Cl      1.93093300      2.01830600     -0.80989100
| 16>  C     -1.59641500      1.78496800      0.94915100
| 17> Cl      2.42620800     -1.72460600     -0.76241500
| 18> Cl      1.39096800      0.08390100      2.26586200
| 19>  H     -3.53400000     -0.25492500     -1.06836300
| 20>  H     -2.40920000      2.44813000      1.28585300
| 21>  H     -1.36084600      1.10930500      1.77202800
| 22>  H     -0.71992100      2.39402700      0.72267300
| 23>  H     -2.60224000      2.61897600     -1.56881200
| 24>  H     -0.89054100      2.14930100     -1.66709300
| 25>  H     -2.16136600      1.12717700     -2.41450100
| 26>  C     -3.71554900     -0.37817800      1.11851400
| 27>  H     -4.58150100      0.28345500      1.24998900
| 28>  H     -4.09443200     -1.40384200      1.08111300
| 29>  H     -3.09045100     -0.28517500      2.00922200
| 30>  C     -1.19290200     -2.00894100      0.78509100
| 31>  H     -2.02938800     -2.70757800      0.86021200
| 32>  H     -0.26901100     -2.58994200      0.65174100
| 33>  H     -1.08276900     -1.44264400      1.71086100
| 34>  C     -1.51609400     -1.81073000     -1.73416600
| 35>  H     -0.58288200     -2.34737700     -1.95463600
| 36>  H     -2.34001200     -2.52839400     -1.69295000
| 37>  H     -1.68061500     -1.09766400     -2.54477400
| 38> *
| 39>
| 40>
| 41>                          ****END OF INPUT****

CARTESIAN COORDINATES (ANGSTROEM)
---------------------------------
  O     -0.380317   -0.107937   -0.482204
  C     -1.308187   -1.110838   -0.415775
  C     -2.978111   -0.041097   -0.156924
  C     -2.100072    1.076395   -0.259123
  C     -1.907340    1.763743   -1.565137
  Fe     1.409303    0.050751    0.050186
  Cl     1.930933    2.018306   -0.809891
  C     -1.596415    1.784968    0.949151
  Cl     2.426208   -1.724606   -0.762415
  Cl     1.390968    0.083901    2.265862
  H     -3.534000   -0.254925   -1.068363
  H     -2.409200    2.448130    1.285853
  H     -1.360846    1.109305    1.772028
  H     -0.719921    2.394027    0.722673
  H     -2.602240    2.618976   -1.568812
  H     -0.890541    2.149301   -1.667093
  H     -2.161366    1.127177   -2.414501
  C     -3.715549   -0.378178    1.118514
  H     -4.581501    0.283455    1.249989
  H     -4.094432   -1.403842    1.081113
  H     -3.090451   -0.285175    2.009222
  C     -1.192902   -2.008941    0.785091
  H     -2.029388   -2.707578    0.860212
  H     -0.269011   -2.589942    0.651741
  H     -1.082769   -1.442644    1.710861
  C     -1.516094   -1.810730   -1.734166
  H     -0.582882   -2.347377   -1.954636
  H     -2.340012   -2.528394   -1.692950
  H     -1.680615   -1.097664   -2.544774

ORBITAL ENERGIES
----------------
                 SPIN UP ORBITALS
  NO   OCC          E(Eh)            E(eV)
   0   1.0000    -261.552631     -7117.2089
   1   1.0000    -104.778265     -2851.1615
   2   1.0000    -104.777072     -2851.1291
   3   1.0000    -104.777019     -2851.1276
   4   1.0000     -32.220519      -876.7649
   5   1.0000     -27.696472      -753.6593
   6   1.0000     -27.696193      -753.6517
   7   1.0000     -27.695967      -753.6456
   8   1.0000     -20.557590      -559.4005
   9   1.0000     -11.384017      -309.7749
  10   1.0000     -11.377590      -309.6000
  11   1.0000     -11.275287      -306.8161
  12   1.0000     -11.269527      -306.6594
  13   1.0000     -11.266659      -306.5814
  14   1.0000     -11.259016      -306.3734
  15   1.0000     -11.252957      -306.2085
  16   1.0000     -11.249431      -306.1126
  17   1.0000     -10.504778      -285.8495
  18   1.0000     -10.503618      -285.8180
  19   1.0000     -10.503604      -285.8176
  20   1.0000      -7.971586      -216.9179
  21   1.0000      -7.970872      -216.8985
  22   1.0000      -7.970792      -216.8963
  23   1.0000      -7.970493      -216.8881
  24   1.0000      -7.970435      -216.8866
  25   1.0000      -7.969721      -216.8671
  26   1.0000      -7.969659      -216.8655
  27   1.0000      -7.969645      -216.8651
  28   1.0000      -7.969603      -216.8639
  29   1.0000      -4.575947      -124.5179
  30   1.0000      -3.188572       -86.7655
  31   1.0000      -3.188037       -86.7509
  32   1.0000      -3.187449       -86.7349
  33   1.0000      -1.389498       -37.8102
  34   1.0000      -1.168235       -31.7893
  35   1.0000      -1.086774       -29.5726
  36   1.0000      -1.049997       -28.5719
  37   1.0000      -1.043995       -28.4086
  38   1.0000      -1.043390       -28.3921
  39   1.0000      -1.039183       -28.2776
  40   1.0000      -1.002781       -27.2871
  41   1.0000      -0.982260       -26.7286
  42   1.0000      -0.930410       -25.3177
  43   1.0000      -0.912169       -24.8214
  44   1.0000      -0.905590       -24.6424
  45   1.0000      -0.905374       -24.6365
  46   1.0000      -0.896914       -24.4063
  47   1.0000      -0.896245       -24.3881
  48   1.0000      -0.785567       -21.3764
  49   1.0000      -0.761307       -20.7162
  50   1.0000      -0.693969       -18.8838
  51   1.0000      -0.693000       -18.8575
  52   1.0000      -0.673739       -18.3334
  53   1.0000      -0.651057       -17.7162
  54   1.0000      -0.640023       -17.4159
  55   1.0000      -0.623379       -16.9630
  56   1.0000      -0.599078       -16.3017
  57   1.0000      -0.591075       -16.0840
  58   1.0000      -0.587718       -15.9926
  59   1.0000      -0.584287       -15.8992
  60   1.0000      -0.572162       -15.5693
  61   1.0000      -0.564585       -15.3631
  62   1.0000      -0.553520       -15.0620
  63   1.0000      -0.546685       -14.8761
  64   1.0000      -0.537709       -14.6318
  65   1.0000      -0.531672       -14.4675
  66   1.0000      -0.510048       -13.8791
  67   1.0000      -0.482902       -13.1404
  68   1.0000      -0.465186       -12.6584
  69   1.0000      -0.453595       -12.3429
  70   1.0000      -0.433344       -11.7919
  71   1.0000      -0.427972       -11.6457
  72   1.0000      -0.425003       -11.5649
  73   1.0000      -0.418947       -11.4001
  74   1.0000      -0.416244       -11.3266
  75   1.0000      -0.415499       -11.3063
  76   1.0000      -0.377113       -10.2618
  77   0.0000       0.009712         0.2643
  78   0.0000       0.020493         0.5577
  79   0.0000       0.022725         0.6184
  80   0.0000       0.030668         0.8345
  81   0.0000       0.037851         1.0300

                 SPIN DOWN ORBITALS
  NO   OCC          E(Eh)            E(eV)
   0   1.0000    -261.549082     -7117.1123
   1   1.0000    -104.776919     -2851.1249
   2   1.0000    -104.775642     -2851.0902
   3   1.0000    -104.775628     -2851.0898
   4   1.0000     -32.058536      -872.3571
   5   1.0000     -27.536560      -749.3079
   6   1.0000     -27.536420      -749.3041
   7   1.0000     -27.536007      -749.2928
   8   1.0000     -20.552227      -559.2545
   9   1.0000     -11.384090      -309.7768
  10   1.0000     -11.377628      -309.6010
  11   1.0000     -11.274784      -306.8025
  12   1.0000     -11.269507      -306.6589
  13   1.0000     -11.266669      -306.5817
  14   1.0000     -11.259066      -306.3747
  15   1.0000     -11.252876      -306.2063
  16   1.0000     -11.249392      -306.1115
  17   1.0000     -10.503337      -285.8103
  18   1.0000     -10.502110      -285.7769
  19   1.0000     -10.502088      -285.7763
  20   1.0000      -7.969309      -216.8559
  21   1.0000      -7.968643      -216.8378
  22   1.0000      -7.968559      -216.8355
  23   1.0000      -7.968041      -216.8214
  24   1.0000      -7.967997      -216.8202
  25   1.0000      -7.967439      -216.8050
  26   1.0000      -7.967364      -216.8030
  27   1.0000      -7.967331      -216.8021
  28   1.0000      -7.967263      -216.8003
  29   1.0000      -4.133830      -112.4872
  30   1.0000      -2.655641       -72.2637
  31   1.0000      -2.655496       -72.2597
  32   1.0000      -2.654944       -72.2447
  33   1.0000      -1.375723       -37.4353
  34   1.0000      -1.166843       -31.7514
  35   1.0000      -1.084033       -29.4980
  36   1.0000      -1.038399       -28.2563
  37   1.0000      -1.035316       -28.1724
  38   1.0000      -1.024083       -27.8667
  39   1.0000      -1.023150       -27.8413
  40   1.0000      -1.002419       -27.2772
  41   1.0000      -0.981773       -26.7154
  42   1.0000      -0.925005       -25.1707
  43   1.0000      -0.795053       -21.6345
  44   1.0000      -0.763072       -20.7642
  45   1.0000      -0.693956       -18.8835
  46   1.0000      -0.692934       -18.8557
  47   1.0000      -0.675056       -18.3692
  48   1.0000      -0.651246       -17.7213
  49   1.0000      -0.639008       -17.3883
  50   1.0000      -0.623524       -16.9670
  51   1.0000      -0.598015       -16.2728
  52   1.0000      -0.590970       -16.0811
  53   1.0000      -0.587601       -15.9894
  54   1.0000      -0.583462       -15.8768
  55   1.0000      -0.571999       -15.5649
  56   1.0000      -0.564615       -15.3640
  57   1.0000      -0.552514       -15.0347
  58   1.0000      -0.546079       -14.8596
  59   1.0000      -0.533907       -14.5284
  60   1.0000      -0.529558       -14.4100
  61   1.0000      -0.505550       -13.7567
  62   1.0000      -0.478706       -13.0262
  63   1.0000      -0.469221       -12.7682
  64   1.0000      -0.464330       -12.6351
  65   1.0000      -0.439363       -11.9557
  66   1.0000      -0.437073       -11.8934
  67   1.0000      -0.434904       -11.8343
  68   1.0000      -0.423445       -11.5225
  69   1.0000      -0.414130       -11.2690
  70   1.0000      -0.402498       -10.9525
  71   1.0000      -0.376052       -10.2329
  72   0.0000       0.009709         0.2642
  73   0.0000       0.020401         0.5551
  74   0.0000       0.022706         0.6179
  75   0.0000       0.030711         0.8357
  76   0.0000       0.037806         1.0287

E(0)                                       ...  -3028.413311816
E(0)                                       ...  -3028.413311816
E(CORR)(strong-pairs)                      ...     -2.873010103
E(CORR)(weak-pairs)                        ...     -0.035995036
E(CORR)(corrected)                         ...     -2.909005138
E(TOT)                                     ...  -3031.322316955
E(CCSD(T))                                 ...  -3031.442026988
FINAL SINGLE POINT ENERGY     -3031.442026987705

DIPOLE MOMENT
-------------
                                X             Y             Z
Electronic contribution:     40.92135       3.19043       2.16127
Nuclear contribution   :    -45.33479      -3.14425      -2.65866
                        -----------------------------------------
Total Dipole Moment    :     -4.41343       0.04617      -0.49739
                        -----------------------------------------
Magnitude (a.u.)       :      4.44161
Magnitude (Debye)      :     11.28969

Rotational constants in cm-1:     0.019255     0.011637     0.010690
Rotational constants in MHz :   577.240307   348.871144   320.471483

                             ****ORCA TERMINATED NORMALLY****
TOTAL RUN TIME: 0 days 21 hours 27 minutes 42 seconds 418 msec
