                         Program Version 4.1.2  - RELEASE  -
|  1> ! aug-cc-pVTZ aug-cc-pVTZ/C DLPNO-CCSD(T1) TightSCF NormalPNO UNO MiniPrint AutoAux
|  2> %pal nproc 10 end
|  3> %maxcore 20000
|  4> %mdci
|  5>      density none
|  6> end
|  7>
|  8> * xyz 0 6
|  9>  O      0.25254100      0.36046200     -0.80311900
| 10>  C      0.97032800      1.36729800     -0.61949700
| 11>  C      3.23061000     -0.04011300      0.39677700
| 12>  C      2.53687100     -0.97868800     -0.27535600
| 13>  C      2.77226400     -1.22518700     -1.74179900
| 14> Fe     -1.46670000     -0.15143100      0.04414600
| 15> Cl     -2.09585900     -1.94294700     -1.01202900
| 16>  C      1.60179700     -1.96148100      0.37033700
| 17> Cl     -2.63431600      1.65161600     -0.38612300
| 18> Cl     -1.14881600     -0.40982800      2.19685500
| 19>  H      3.95299700      0.54953600     -0.16940000
| 20>  H      2.10463800     -2.93473600      0.45697500
| 21>  H      1.27224300     -1.66841900      1.36712400
| 22>  H      0.71714100     -2.13265300     -0.25230100
| 23>  H      3.14380300     -2.24703300     -1.89473100
| 24>  H      1.83405200     -1.15041400     -2.30576200
| 25>  H      3.50570200     -0.53490300     -2.16948800
| 26>  C      3.21935100      0.21120200      1.87913100
| 27>  H      4.09690400     -0.24886000      2.35402000
| 28>  H      3.27140200      1.28282400      2.10445500
| 29>  H      2.33185300     -0.19384200      2.37238500
| 30>  C      0.87119200      2.17471200      0.63449100
| 31>  H      1.75255100      2.79904700      0.78752900
| 32>  H     -0.00552000      2.82943900      0.51899500
| 33>  H      0.69001700      1.53934300      1.50249100
| 34>  C      1.74231100      1.92199500     -1.77442600
| 35>  H      1.16024900      2.77454800     -2.15500400
| 36>  H      2.71716700      2.30199400     -1.46319000
| 37>  H      1.84317400      1.18890500     -2.57286200
| 38> *
| 39>
| 40>
| 41>                          ****END OF INPUT****

CARTESIAN COORDINATES (ANGSTROEM)
---------------------------------
  O      0.252541    0.360462   -0.803119
  C      0.970328    1.367298   -0.619497
  C      3.230610   -0.040113    0.396777
  C      2.536871   -0.978688   -0.275356
  C      2.772264   -1.225187   -1.741799
  Fe    -1.466700   -0.151431    0.044146
  Cl    -2.095859   -1.942947   -1.012029
  C      1.601797   -1.961481    0.370337
  Cl    -2.634316    1.651616   -0.386123
  Cl    -1.148816   -0.409828    2.196855
  H      3.952997    0.549536   -0.169400
  H      2.104638   -2.934736    0.456975
  H      1.272243   -1.668419    1.367124
  H      0.717141   -2.132653   -0.252301
  H      3.143803   -2.247033   -1.894731
  H      1.834052   -1.150414   -2.305762
  H      3.505702   -0.534903   -2.169488
  C      3.219351    0.211202    1.879131
  H      4.096904   -0.248860    2.354020
  H      3.271402    1.282824    2.104455
  H      2.331853   -0.193842    2.372385
  C      0.871192    2.174712    0.634491
  H      1.752551    2.799047    0.787529
  H     -0.005520    2.829439    0.518995
  H      0.690017    1.539343    1.502491
  C      1.742311    1.921995   -1.774426
  H      1.160249    2.774548   -2.155004
  H      2.717167    2.301994   -1.463190
  H      1.843174    1.188905   -2.572862

ORBITAL ENERGIES
----------------
                 SPIN UP ORBITALS
  NO   OCC          E(Eh)            E(eV)
   0   1.0000    -261.579214     -7117.9323
   1   1.0000    -104.795405     -2851.6279
   2   1.0000    -104.792888     -2851.5595
   3   1.0000    -104.791301     -2851.5163
   4   1.0000     -32.246843      -877.4812
   5   1.0000     -27.723389      -754.3918
   6   1.0000     -27.722151      -754.3581
   7   1.0000     -27.721970      -754.3531
   8   1.0000     -20.624711      -561.2269
   9   1.0000     -11.422955      -310.8344
  10   1.0000     -11.279650      -306.9349
  11   1.0000     -11.273806      -306.7759
  12   1.0000     -11.259391      -306.3836
  13   1.0000     -11.238577      -305.8172
  14   1.0000     -11.237085      -305.7766
  15   1.0000     -11.236733      -305.7671
  16   1.0000     -11.226330      -305.4840
  17   1.0000     -10.522130      -286.3217
  18   1.0000     -10.519591      -286.2526
  19   1.0000     -10.517946      -286.2079
  20   1.0000      -7.988951      -217.3904
  21   1.0000      -7.988222      -217.3706
  22   1.0000      -7.988161      -217.3689
  23   1.0000      -7.986498      -217.3237
  24   1.0000      -7.985676      -217.3013
  25   1.0000      -7.985615      -217.2996
  26   1.0000      -7.984724      -217.2754
  27   1.0000      -7.984072      -217.2576
  28   1.0000      -7.984032      -217.2566
  29   1.0000      -4.601592      -125.2157
  30   1.0000      -3.214763       -87.4781
  31   1.0000      -3.212920       -87.4280
  32   1.0000      -3.212822       -87.4253
  33   1.0000      -1.470967       -40.0271
  34   1.0000      -1.119962       -30.4757
  35   1.0000      -1.104220       -30.0474
  36   1.0000      -1.069103       -29.0918
  37   1.0000      -1.063423       -28.9372
  38   1.0000      -1.061070       -28.8732
  39   1.0000      -1.020846       -27.7786
  40   1.0000      -1.009557       -27.4714
  41   1.0000      -0.954519       -25.9738
  42   1.0000      -0.944985       -25.7143
  43   1.0000      -0.930458       -25.3190
  44   1.0000      -0.930312       -25.3151
  45   1.0000      -0.919282       -25.0149
  46   1.0000      -0.918787       -25.0015
  47   1.0000      -0.892096       -24.2752
  48   1.0000      -0.816961       -22.2306
  49   1.0000      -0.724491       -19.7144
  50   1.0000      -0.715880       -19.4801
  51   1.0000      -0.706644       -19.2288
  52   1.0000      -0.687188       -18.6993
  53   1.0000      -0.650394       -17.6981
  54   1.0000      -0.622371       -16.9356
  55   1.0000      -0.617208       -16.7951
  56   1.0000      -0.602837       -16.4040
  57   1.0000      -0.600303       -16.3351
  58   1.0000      -0.586564       -15.9612
  59   1.0000      -0.580005       -15.7827
  60   1.0000      -0.560884       -15.2624
  61   1.0000      -0.550718       -14.9858
  62   1.0000      -0.548444       -14.9239
  63   1.0000      -0.536643       -14.6028
  64   1.0000      -0.535025       -14.5588
  65   1.0000      -0.523142       -14.2354
  66   1.0000      -0.506019       -13.7695
  67   1.0000      -0.488809       -13.3012
  68   1.0000      -0.478803       -13.0289
  69   1.0000      -0.478281       -13.0147
  70   1.0000      -0.449018       -12.2184
  71   1.0000      -0.442506       -12.0412
  72   1.0000      -0.440860       -11.9964
  73   1.0000      -0.432332       -11.7643
  74   1.0000      -0.430980       -11.7276
  75   1.0000      -0.430146       -11.7049
  76   1.0000      -0.354734        -9.6528
  77   0.0000       0.012928         0.3518
  78   0.0000       0.023951         0.6517
  79   0.0000       0.024920         0.6781
  80   0.0000       0.030808         0.8383
  81   0.0000       0.039605         1.0777

                 SPIN DOWN ORBITALS
  NO   OCC          E(Eh)            E(eV)
   0   1.0000    -261.575631     -7117.8348
   1   1.0000    -104.793896     -2851.5869
   2   1.0000    -104.791329     -2851.5170
   3   1.0000    -104.789728     -2851.4735
   4   1.0000     -32.084884      -873.0741
   5   1.0000     -27.562845      -750.0231
   6   1.0000     -27.562702      -750.0193
   7   1.0000     -27.562626      -750.0172
   8   1.0000     -20.621442      -561.1380
   9   1.0000     -11.422855      -310.8317
  10   1.0000     -11.279552      -306.9322
  11   1.0000     -11.273805      -306.7758
  12   1.0000     -11.259467      -306.3857
  13   1.0000     -11.238476      -305.8145
  14   1.0000     -11.237073      -305.7763
  15   1.0000     -11.236741      -305.7673
  16   1.0000     -11.226335      -305.4841
  17   1.0000     -10.520520      -286.2779
  18   1.0000     -10.517926      -286.2073
  19   1.0000     -10.516276      -286.1624
  20   1.0000      -7.986451      -217.3224
  21   1.0000      -7.985674      -217.3012
  22   1.0000      -7.985631      -217.3001
  23   1.0000      -7.983775      -217.2496
  24   1.0000      -7.983139      -217.2323
  25   1.0000      -7.983039      -217.2295
  26   1.0000      -7.982275      -217.2088
  27   1.0000      -7.981349      -217.1835
  28   1.0000      -7.981271      -217.1814
  29   1.0000      -4.159571      -113.1877
  30   1.0000      -2.681121       -72.9570
  31   1.0000      -2.681025       -72.9544
  32   1.0000      -2.680663       -72.9445
  33   1.0000      -1.462958       -39.8091
  34   1.0000      -1.119681       -30.4681
  35   1.0000      -1.102068       -29.9888
  36   1.0000      -1.053352       -28.6632
  37   1.0000      -1.040735       -28.3198
  38   1.0000      -1.038163       -28.2499
  39   1.0000      -1.019910       -27.7532
  40   1.0000      -1.009304       -27.4646
  41   1.0000      -0.954261       -25.9668
  42   1.0000      -0.892198       -24.2780
  43   1.0000      -0.828786       -22.5524
  44   1.0000      -0.724594       -19.7172
  45   1.0000      -0.717475       -19.5235
  46   1.0000      -0.705900       -19.2085
  47   1.0000      -0.686646       -18.6846
  48   1.0000      -0.650353       -17.6970
  49   1.0000      -0.621826       -16.9208
  50   1.0000      -0.617118       -16.7926
  51   1.0000      -0.602696       -16.4002
  52   1.0000      -0.600232       -16.3331
  53   1.0000      -0.586299       -15.9540
  54   1.0000      -0.578975       -15.7547
  55   1.0000      -0.559740       -15.2313
  56   1.0000      -0.549349       -14.9486
  57   1.0000      -0.547278       -14.8922
  58   1.0000      -0.535999       -14.5853
  59   1.0000      -0.526101       -14.3159
  60   1.0000      -0.522317       -14.2130
  61   1.0000      -0.507297       -13.8043
  62   1.0000      -0.488636       -13.2965
  63   1.0000      -0.487090       -13.2544
  64   1.0000      -0.485233       -13.2039
  65   1.0000      -0.455811       -12.4032
  66   1.0000      -0.452955       -12.3255
  67   1.0000      -0.449885       -12.2420
  68   1.0000      -0.433177       -11.7873
  69   1.0000      -0.431650       -11.7458
  70   1.0000      -0.415191       -11.2979
  71   1.0000      -0.354277        -9.6404
  72   0.0000       0.012912         0.3514
  73   0.0000       0.023927         0.6511
  74   0.0000       0.024878         0.6770
  75   0.0000       0.030750         0.8367
  76   0.0000       0.039503         1.0749

E(0)                                       ...  -3028.467490074
E(0)                                       ...  -3028.467490074
E(CORR)(strong-pairs)                      ...     -2.866706903
E(CORR)(weak-pairs)                        ...     -0.035202810
E(CORR)(corrected)                         ...     -2.901909713
E(TOT)                                     ...  -3031.369399787
E(CCSD(T))                                 ...  -3031.487149117
FINAL SINGLE POINT ENERGY     -3031.487149117090

DIPOLE MOMENT
-------------
                                X             Y             Z
Electronic contribution:    -43.52359      -4.02187       2.13362
Nuclear contribution   :     46.64907       5.53351      -2.73931
                        -----------------------------------------
Total Dipole Moment    :      3.12548       1.51163      -0.60569
                        -----------------------------------------
Magnitude (a.u.)       :      3.52428
Magnitude (Debye)      :      8.95800

Rotational constants in cm-1:     0.018744     0.010751     0.010134
Rotational constants in MHz :   561.929065   322.313421   303.819014

                             ****ORCA TERMINATED NORMALLY****
TOTAL RUN TIME: 0 days 17 hours 36 minutes 21 seconds 952 msec
