                         Program Version 4.1.2  - RELEASE  -
|  1> ! aug-cc-pVTZ aug-cc-pVTZ/C DLPNO-CCSD(T1) TightSCF NormalPNO UNO MiniPrint AutoAux
|  2> %pal nproc 10 end
|  3> %maxcore 20000
|  4> %mdci
|  5>      density none
|  6> end
|  7>
|  8> * xyz 0 6
|  9>  O     -0.30576400     -0.18997400     -0.48258400
| 10>  C     -1.14436800     -1.14077500     -0.25071600
| 11>  C     -2.67324900     -0.24002100      0.87230200
| 12>  C     -3.03980200      0.68785800     -0.07701200
| 13>  C     -4.11747400      0.41708100     -1.07701800
| 14> Fe      1.53291500      0.17733900     -0.09633700
| 15> Cl      1.85465800      2.12157100     -1.04795100
| 16>  C     -2.31657100      1.98230100     -0.19233900
| 17> Cl      2.55642500     -1.54164600     -1.00160900
| 18> Cl      1.79960300      0.24404600      2.08874800
| 19>  H     -3.30707800     -1.12315900      0.94483200
| 20>  H     -2.79777900      2.67127500     -0.89008300
| 21>  H     -2.18262200      2.47373100      0.77630300
| 22>  H     -1.30122400      1.75931500     -0.56552800
| 23>  H     -4.94412000      1.11752300     -0.89187100
| 24>  H     -3.77455200      0.61614700     -2.10008700
| 25>  H     -4.51234500     -0.59919600     -1.01557900
| 26>  C     -1.95899900      0.17945000      2.14149100
| 27>  H     -2.54375400      0.94650600      2.66295100
| 28>  H     -1.84131400     -0.66243500      2.82558500
| 29>  H     -0.96709700      0.59391600      1.94640500
| 30>  C     -0.75234900     -2.17972000      0.78429400
| 31>  H     -1.59026800     -2.81277500      1.08375900
| 32>  H      0.00036500     -2.81017800      0.29131500
| 33>  H     -0.27839300     -1.73189800      1.65670100
| 34>  C     -1.83608100     -1.70083900     -1.47599500
| 35>  H     -1.11214200     -2.37283500     -1.95446200
| 36>  H     -2.72816200     -2.28106400     -1.22910000
| 37>  H     -2.07748600     -0.91542000     -2.19195900
| 38> *
| 39>
| 40>
| 41>                          ****END OF INPUT****

CARTESIAN COORDINATES (ANGSTROEM)
---------------------------------
  O     -0.305764   -0.189974   -0.482584
  C     -1.144368   -1.140775   -0.250716
  C     -2.673249   -0.240021    0.872302
  C     -3.039802    0.687858   -0.077012
  C     -4.117474    0.417081   -1.077018
  Fe     1.532915    0.177339   -0.096337
  Cl     1.854658    2.121571   -1.047951
  C     -2.316571    1.982301   -0.192339
  Cl     2.556425   -1.541646   -1.001609
  Cl     1.799603    0.244046    2.088748
  H     -3.307078   -1.123159    0.944832
  H     -2.797779    2.671275   -0.890083
  H     -2.182622    2.473731    0.776303
  H     -1.301224    1.759315   -0.565528
  H     -4.944120    1.117523   -0.891871
  H     -3.774552    0.616147   -2.100087
  H     -4.512345   -0.599196   -1.015579
  C     -1.958999    0.179450    2.141491
  H     -2.543754    0.946506    2.662951
  H     -1.841314   -0.662435    2.825585
  H     -0.967097    0.593916    1.946405
  C     -0.752349   -2.179720    0.784294
  H     -1.590268   -2.812775    1.083759
  H      0.000365   -2.810178    0.291315
  H     -0.278393   -1.731898    1.656701
  C     -1.836081   -1.700839   -1.475995
  H     -1.112142   -2.372835   -1.954462
  H     -2.728162   -2.281064   -1.229100
  H     -2.077486   -0.915420   -2.191959

ORBITAL ENERGIES
----------------
                 SPIN UP ORBITALS
  NO   OCC          E(Eh)            E(eV)
   0   1.0000    -261.558907     -7117.3797
   1   1.0000    -104.780792     -2851.2303
   2   1.0000    -104.778277     -2851.1619
   3   1.0000    -104.777403     -2851.1381
   4   1.0000     -32.226736      -876.9341
   5   1.0000     -27.702988      -753.8366
   6   1.0000     -27.702202      -753.8153
   7   1.0000     -27.702056      -753.8113
   8   1.0000     -20.581510      -560.0513
   9   1.0000     -11.402339      -310.2734
  10   1.0000     -11.326377      -308.2064
  11   1.0000     -11.274373      -306.7913
  12   1.0000     -11.268732      -306.6378
  13   1.0000     -11.264510      -306.5229
  14   1.0000     -11.259307      -306.3813
  15   1.0000     -11.254007      -306.2371
  16   1.0000     -11.244991      -305.9918
  17   1.0000     -10.507447      -285.9222
  18   1.0000     -10.504912      -285.8532
  19   1.0000     -10.504002      -285.8284
  20   1.0000      -7.974298      -216.9917
  21   1.0000      -7.973501      -216.9700
  22   1.0000      -7.973480      -216.9694
  23   1.0000      -7.971780      -216.9232
  24   1.0000      -7.971012      -216.9023
  25   1.0000      -7.970930      -216.9000
  26   1.0000      -7.970814      -216.8969
  27   1.0000      -7.970132      -216.8783
  28   1.0000      -7.970042      -216.8759
  29   1.0000      -4.581948      -124.6811
  30   1.0000      -3.194931       -86.9385
  31   1.0000      -3.193626       -86.9030
  32   1.0000      -3.193349       -86.8955
  33   1.0000      -1.423592       -38.7379
  34   1.0000      -1.163442       -31.6589
  35   1.0000      -1.085332       -29.5334
  36   1.0000      -1.052863       -28.6499
  37   1.0000      -1.047594       -28.5065
  38   1.0000      -1.045119       -28.4391
  39   1.0000      -1.037729       -28.2380
  40   1.0000      -0.992687       -27.0124
  41   1.0000      -0.989916       -26.9370
  42   1.0000      -0.928083       -25.2544
  43   1.0000      -0.915976       -24.9250
  44   1.0000      -0.911189       -24.7947
  45   1.0000      -0.911115       -24.7927
  46   1.0000      -0.901198       -24.5228
  47   1.0000      -0.900815       -24.5124
  48   1.0000      -0.796208       -21.6659
  49   1.0000      -0.757793       -20.6206
  50   1.0000      -0.691537       -18.8177
  51   1.0000      -0.684027       -18.6133
  52   1.0000      -0.680278       -18.5113
  53   1.0000      -0.674716       -18.3600
  54   1.0000      -0.646967       -17.6049
  55   1.0000      -0.624423       -16.9914
  56   1.0000      -0.603891       -16.4327
  57   1.0000      -0.596388       -16.2285
  58   1.0000      -0.582702       -15.8561
  59   1.0000      -0.578742       -15.7484
  60   1.0000      -0.570095       -15.5131
  61   1.0000      -0.564505       -15.3610
  62   1.0000      -0.559083       -15.2134
  63   1.0000      -0.543120       -14.7791
  64   1.0000      -0.536096       -14.5879
  65   1.0000      -0.520521       -14.1641
  66   1.0000      -0.518535       -14.1100
  67   1.0000      -0.484117       -13.1735
  68   1.0000      -0.466447       -12.6927
  69   1.0000      -0.459096       -12.4926
  70   1.0000      -0.433998       -11.8097
  71   1.0000      -0.429453       -11.6860
  72   1.0000      -0.426958       -11.6181
  73   1.0000      -0.418738       -11.3945
  74   1.0000      -0.417065       -11.3489
  75   1.0000      -0.416349       -11.3294
  76   1.0000      -0.381002       -10.3676
  77   0.0000       0.008980         0.2443
  78   0.0000       0.020438         0.5561
  79   0.0000       0.021417         0.5828
  80   0.0000       0.026719         0.7271
  81   0.0000       0.033768         0.9189

                 SPIN DOWN ORBITALS
  NO   OCC          E(Eh)            E(eV)
   0   1.0000    -261.555344     -7117.2827
   1   1.0000    -104.779342     -2851.1908
   2   1.0000    -104.776795     -2851.1215
   3   1.0000    -104.775930     -2851.0980
   4   1.0000     -32.064674      -872.5241
   5   1.0000     -27.542634      -749.4732
   6   1.0000     -27.542565      -749.4713
   7   1.0000     -27.542284      -749.4636
   8   1.0000     -20.577408      -559.9397
   9   1.0000     -11.402268      -310.2715
  10   1.0000     -11.325679      -308.1874
  11   1.0000     -11.274465      -306.7938
  12   1.0000     -11.269070      -306.6470
  13   1.0000     -11.264408      -306.5201
  14   1.0000     -11.259316      -306.3816
  15   1.0000     -11.254095      -306.2395
  16   1.0000     -11.244970      -305.9912
  17   1.0000     -10.505894      -285.8799
  18   1.0000     -10.503327      -285.8101
  19   1.0000     -10.502432      -285.7857
  20   1.0000      -7.971793      -216.9235
  21   1.0000      -7.971139      -216.9057
  22   1.0000      -7.971078      -216.9040
  23   1.0000      -7.969231      -216.8538
  24   1.0000      -7.968576      -216.8360
  25   1.0000      -7.968480      -216.8334
  26   1.0000      -7.968406      -216.8314
  27   1.0000      -7.967637      -216.8104
  28   1.0000      -7.967540      -216.8078
  29   1.0000      -4.139651      -112.6456
  30   1.0000      -2.661316       -72.4181
  31   1.0000      -2.661257       -72.4165
  32   1.0000      -2.660692       -72.4011
  33   1.0000      -1.413106       -38.4526
  34   1.0000      -1.162054       -31.6211
  35   1.0000      -1.082779       -29.4639
  36   1.0000      -1.039466       -28.2853
  37   1.0000      -1.036431       -28.2027
  38   1.0000      -1.025589       -27.9077
  39   1.0000      -1.023705       -27.8564
  40   1.0000      -0.992316       -27.0023
  41   1.0000      -0.989610       -26.9287
  42   1.0000      -0.916544       -24.9404
  43   1.0000      -0.810855       -22.0645
  44   1.0000      -0.757949       -20.6248
  45   1.0000      -0.694028       -18.8855
  46   1.0000      -0.684087       -18.6149
  47   1.0000      -0.680008       -18.5040
  48   1.0000      -0.673902       -18.3378
  49   1.0000      -0.646853       -17.6018
  50   1.0000      -0.623603       -16.9691
  51   1.0000      -0.603535       -16.4230
  52   1.0000      -0.596004       -16.2181
  53   1.0000      -0.582587       -15.8530
  54   1.0000      -0.578715       -15.7476
  55   1.0000      -0.569362       -15.4931
  56   1.0000      -0.564502       -15.3609
  57   1.0000      -0.559015       -15.2116
  58   1.0000      -0.542323       -14.7574
  59   1.0000      -0.533762       -14.5244
  60   1.0000      -0.520318       -14.1586
  61   1.0000      -0.509320       -13.8593
  62   1.0000      -0.482336       -13.1250
  63   1.0000      -0.471131       -12.8201
  64   1.0000      -0.469453       -12.7745
  65   1.0000      -0.441980       -12.0269
  66   1.0000      -0.438740       -11.9387
  67   1.0000      -0.436663       -11.8822
  68   1.0000      -0.423022       -11.5110
  69   1.0000      -0.416810       -11.3420
  70   1.0000      -0.402078       -10.9411
  71   1.0000      -0.379229       -10.3193
  72   0.0000       0.008981         0.2444
  73   0.0000       0.020430         0.5559
  74   0.0000       0.021458         0.5839
  75   0.0000       0.026559         0.7227
  76   0.0000       0.033168         0.9026

E(0)                                       ...  -3028.435429097
E(0)                                       ...  -3028.435429097
E(CORR)(strong-pairs)                      ...     -2.874321440
E(CORR)(weak-pairs)                        ...     -0.035546206
E(CORR)(corrected)                         ...     -2.909867646
E(TOT)                                     ...  -3031.345296743
E(CCSD(T))                                 ...  -3031.465737932
FINAL SINGLE POINT ENERGY     -3031.465737931578

DIPOLE MOMENT
-------------
                                X             Y             Z
Electronic contribution:     44.19996       5.87017      -1.68771
Nuclear contribution   :    -48.86357      -6.73590       1.59377
                        -----------------------------------------
Total Dipole Moment    :     -4.66361      -0.86574      -0.09394
                        -----------------------------------------
Magnitude (a.u.)       :      4.74421
Magnitude (Debye)      :     12.05883

Rotational constants in cm-1:     0.019781     0.010115     0.009677
Rotational constants in MHz :   593.012252   303.237696   290.123155

                             ****ORCA TERMINATED NORMALLY****
TOTAL RUN TIME: 0 days 17 hours 17 minutes 15 seconds 23 msec
