                         Program Version 4.1.2  - RELEASE  -
|  1> ! aug-cc-pVTZ aug-cc-pVTZ/C DLPNO-CCSD(T1) TightSCF NormalPNO UNO MiniPrint AutoAux
|  2> %pal nproc 10 end
|  3> %maxcore 20000
|  4> %mdci
|  5>      density none
|  6> end
|  7>
|  8> * xyz 0 6
|  9>  O      0.16315200      0.43209100     -0.88956600
| 10>  C      0.92524100      1.40027200     -0.67545500
| 11>  C      3.13146400      0.08561300      0.56016400
| 12>  C      2.68889900     -0.93016700     -0.20593800
| 13>  C      3.15440900     -1.09878800     -1.62802400
| 14> Fe     -1.49163500     -0.17525300      0.01667400
| 15> Cl     -2.06150200     -1.98069700     -1.04835100
| 16>  C      1.75227200     -2.00496900      0.26642000
| 17> Cl     -2.76759100      1.57206500     -0.30646800
| 18> Cl     -1.04095100     -0.48167900      2.14057200
| 19>  H      3.85529700      0.76812500      0.11229700
| 20>  H      2.26198600     -2.97773300      0.24789300
| 21>  H      1.36941300     -1.84290000      1.27371000
| 22>  H      0.89713500     -2.09751900     -0.41529300
| 23>  H      3.67291700     -2.05954200     -1.74463100
| 24>  H      2.30095900     -1.12523600     -2.31871900
| 25>  H      3.84136700     -0.30662800     -1.94029000
| 26>  C      2.89089900      0.28271500      2.03238000
| 27>  H      3.71332400     -0.15585800      2.61422000
| 28>  H      2.85947400      1.34588800      2.29371900
| 29>  H      1.96168300     -0.17610200      2.37886400
| 30>  C      0.77810300      2.24521100      0.54930600
| 31>  H      1.65964900      2.86124400      0.73039000
| 32>  H     -0.08262300      2.90628700      0.36810900
| 33>  H      0.54193000      1.64100900      1.42612300
| 34>  C      1.77093400      1.90192700     -1.80397200
| 35>  H      1.22738500      2.75021700     -2.24584800
| 36>  H      2.73533500      2.27413800     -1.45476300
| 37>  H      1.89948300      1.13886600     -2.56987100
| 38> *
| 39>
| 40>
| 41>                          ****END OF INPUT****

CARTESIAN COORDINATES (ANGSTROEM)
---------------------------------
  O      0.163152    0.432091   -0.889566
  C      0.925241    1.400272   -0.675455
  C      3.131464    0.085613    0.560164
  C      2.688899   -0.930167   -0.205938
  C      3.154409   -1.098788   -1.628024
  Fe    -1.491635   -0.175253    0.016674
  Cl    -2.061502   -1.980697   -1.048351
  C      1.752272   -2.004969    0.266420
  Cl    -2.767591    1.572065   -0.306468
  Cl    -1.040951   -0.481679    2.140572
  H      3.855297    0.768125    0.112297
  H      2.261986   -2.977733    0.247893
  H      1.369413   -1.842900    1.273710
  H      0.897135   -2.097519   -0.415293
  H      3.672917   -2.059542   -1.744631
  H      2.300959   -1.125236   -2.318719
  H      3.841367   -0.306628   -1.940290
  C      2.890899    0.282715    2.032380
  H      3.713324   -0.155858    2.614220
  H      2.859474    1.345888    2.293719
  H      1.961683   -0.176102    2.378864
  C      0.778103    2.245211    0.549306
  H      1.659649    2.861244    0.730390
  H     -0.082623    2.906287    0.368109
  H      0.541930    1.641009    1.426123
  C      1.770934    1.901927   -1.803972
  H      1.227385    2.750217   -2.245848
  H      2.735335    2.274138   -1.454763
  H      1.899483    1.138866   -2.569871

ORBITAL ENERGIES
----------------
                 SPIN UP ORBITALS
  NO   OCC          E(Eh)            E(eV)
   0   1.0000    -261.578227     -7117.9054
   1   1.0000    -104.795590     -2851.6330
   2   1.0000    -104.792441     -2851.5473
   3   1.0000    -104.790370     -2851.4909
   4   1.0000     -32.245900      -877.4556
   5   1.0000     -27.722437      -754.3659
   6   1.0000     -27.721209      -754.3324
   7   1.0000     -27.721007      -754.3270
   8   1.0000     -20.627005      -561.2894
   9   1.0000     -11.422239      -310.8149
  10   1.0000     -11.279374      -306.9274
  11   1.0000     -11.273731      -306.7738
  12   1.0000     -11.260074      -306.4022
  13   1.0000     -11.240687      -305.8746
  14   1.0000     -11.239686      -305.8474
  15   1.0000     -11.234512      -305.7066
  16   1.0000     -11.226449      -305.4872
  17   1.0000     -10.522328      -286.3271
  18   1.0000     -10.519142      -286.2404
  19   1.0000     -10.517021      -286.1827
  20   1.0000      -7.989150      -217.3958
  21   1.0000      -7.988416      -217.3758
  22   1.0000      -7.988359      -217.3743
  23   1.0000      -7.986024      -217.3108
  24   1.0000      -7.985238      -217.2894
  25   1.0000      -7.985185      -217.2879
  26   1.0000      -7.983804      -217.2503
  27   1.0000      -7.983154      -217.2327
  28   1.0000      -7.983109      -217.2314
  29   1.0000      -4.600682      -125.1909
  30   1.0000      -3.213858       -87.4535
  31   1.0000      -3.212031       -87.4038
  32   1.0000      -3.211889       -87.4000
  33   1.0000      -1.470204       -40.0063
  34   1.0000      -1.120619       -30.4936
  35   1.0000      -1.102895       -30.0113
  36   1.0000      -1.069004       -29.0891
  37   1.0000      -1.063149       -28.9298
  38   1.0000      -1.060220       -28.8501
  39   1.0000      -1.021059       -27.7844
  40   1.0000      -1.009003       -27.4564
  41   1.0000      -0.954579       -25.9754
  42   1.0000      -0.944645       -25.7051
  43   1.0000      -0.929538       -25.2940
  44   1.0000      -0.929388       -25.2899
  45   1.0000      -0.918516       -24.9941
  46   1.0000      -0.917889       -24.9770
  47   1.0000      -0.892218       -24.2785
  48   1.0000      -0.817044       -22.2329
  49   1.0000      -0.724925       -19.7262
  50   1.0000      -0.715770       -19.4771
  51   1.0000      -0.705548       -19.1989
  52   1.0000      -0.684368       -18.6226
  53   1.0000      -0.650866       -17.7110
  54   1.0000      -0.621371       -16.9084
  55   1.0000      -0.617277       -16.7970
  56   1.0000      -0.604436       -16.4475
  57   1.0000      -0.599910       -16.3244
  58   1.0000      -0.586337       -15.9550
  59   1.0000      -0.580117       -15.7858
  60   1.0000      -0.561153       -15.2698
  61   1.0000      -0.548670       -14.9301
  62   1.0000      -0.546362       -14.8673
  63   1.0000      -0.538079       -14.6419
  64   1.0000      -0.536867       -14.6089
  65   1.0000      -0.523151       -14.2357
  66   1.0000      -0.506231       -13.7752
  67   1.0000      -0.489016       -13.3068
  68   1.0000      -0.478545       -13.0219
  69   1.0000      -0.478195       -13.0124
  70   1.0000      -0.448698       -12.2097
  71   1.0000      -0.442238       -12.0339
  72   1.0000      -0.440379       -11.9833
  73   1.0000      -0.431814       -11.7503
  74   1.0000      -0.430865       -11.7244
  75   1.0000      -0.429549       -11.6886
  76   1.0000      -0.356457        -9.6997
  77   0.0000       0.012691         0.3453
  78   0.0000       0.023889         0.6500
  79   0.0000       0.024677         0.6715
  80   0.0000       0.030860         0.8397
  81   0.0000       0.039450         1.0735

                 SPIN DOWN ORBITALS
  NO   OCC          E(Eh)            E(eV)
   0   1.0000    -261.574639     -7117.8078
   1   1.0000    -104.794090     -2851.5922
   2   1.0000    -104.790875     -2851.5047
   3   1.0000    -104.788789     -2851.4479
   4   1.0000     -32.083926      -873.0480
   5   1.0000     -27.561878      -749.9968
   6   1.0000     -27.561748      -749.9933
   7   1.0000     -27.561670      -749.9912
   8   1.0000     -20.623637      -561.1977
   9   1.0000     -11.422178      -310.8133
  10   1.0000     -11.279269      -306.9245
  11   1.0000     -11.273723      -306.7736
  12   1.0000     -11.260111      -306.4032
  13   1.0000     -11.240635      -305.8732
  14   1.0000     -11.239681      -305.8473
  15   1.0000     -11.234516      -305.7067
  16   1.0000     -11.226457      -305.4874
  17   1.0000     -10.520726      -286.2835
  18   1.0000     -10.517471      -286.1949
  19   1.0000     -10.515343      -286.1370
  20   1.0000      -7.986656      -217.3280
  21   1.0000      -7.985887      -217.3070
  22   1.0000      -7.985851      -217.3061
  23   1.0000      -7.983346      -217.2379
  24   1.0000      -7.982659      -217.2192
  25   1.0000      -7.982567      -217.2167
  26   1.0000      -7.981340      -217.1833
  27   1.0000      -7.980418      -217.1582
  28   1.0000      -7.980336      -217.1560
  29   1.0000      -4.158660      -113.1629
  30   1.0000      -2.680195       -72.9318
  31   1.0000      -2.680162       -72.9309
  32   1.0000      -2.679741       -72.9195
  33   1.0000      -1.462037       -39.7840
  34   1.0000      -1.120322       -30.4855
  35   1.0000      -1.100690       -29.9513
  36   1.0000      -1.053191       -28.6588
  37   1.0000      -1.040563       -28.3152
  38   1.0000      -1.037274       -28.2257
  39   1.0000      -1.020102       -27.7584
  40   1.0000      -1.008767       -27.4500
  41   1.0000      -0.954458       -25.9721
  42   1.0000      -0.892292       -24.2805
  43   1.0000      -0.829523       -22.5725
  44   1.0000      -0.725009       -19.7285
  45   1.0000      -0.717354       -19.5202
  46   1.0000      -0.704803       -19.1787
  47   1.0000      -0.683805       -18.6073
  48   1.0000      -0.650820       -17.7097
  49   1.0000      -0.620795       -16.8927
  50   1.0000      -0.617203       -16.7949
  51   1.0000      -0.604289       -16.4435
  52   1.0000      -0.599834       -16.3223
  53   1.0000      -0.586044       -15.9471
  54   1.0000      -0.578633       -15.7454
  55   1.0000      -0.560328       -15.2473
  56   1.0000      -0.548168       -14.9164
  57   1.0000      -0.544506       -14.8168
  58   1.0000      -0.536886       -14.6094
  59   1.0000      -0.527299       -14.3485
  60   1.0000      -0.522729       -14.2242
  61   1.0000      -0.508217       -13.8293
  62   1.0000      -0.489127       -13.3098
  63   1.0000      -0.486700       -13.2438
  64   1.0000      -0.484498       -13.1838
  65   1.0000      -0.455731       -12.4011
  66   1.0000      -0.452549       -12.3145
  67   1.0000      -0.449447       -12.2301
  68   1.0000      -0.433026       -11.7832
  69   1.0000      -0.430996       -11.7280
  70   1.0000      -0.414855       -11.2888
  71   1.0000      -0.356092        -9.6898
  72   0.0000       0.012675         0.3449
  73   0.0000       0.023865         0.6494
  74   0.0000       0.024637         0.6704
  75   0.0000       0.030807         0.8383
  76   0.0000       0.039371         1.0713

E(0)                                       ...  -3028.472827198
E(0)                                       ...  -3028.472827198
E(CORR)(strong-pairs)                      ...     -2.865090602
E(CORR)(weak-pairs)                        ...     -0.035357480
E(CORR)(corrected)                         ...     -2.900448081
E(TOT)                                     ...  -3031.373275279
E(CCSD(T))                                 ...  -3031.490806477
FINAL SINGLE POINT ENERGY     -3031.490806477352

DIPOLE MOMENT
-------------
                                X             Y             Z
Electronic contribution:    -43.90639      -5.04664       1.72936
Nuclear contribution   :     47.04174       6.64384      -2.35685
                        -----------------------------------------
Total Dipole Moment    :      3.13535       1.59720      -0.62749
                        -----------------------------------------
Magnitude (a.u.)       :      3.57425
Magnitude (Debye)      :      9.08501

Rotational constants in cm-1:     0.018719     0.010582     0.009962
Rotational constants in MHz :   561.187624   317.228576   298.662534

                             ****ORCA TERMINATED NORMALLY****
TOTAL RUN TIME: 0 days 16 hours 47 minutes 56 seconds 181 msec
