                         Program Version 4.1.2  - RELEASE  -
|  1> ! aug-cc-pVTZ aug-cc-pVTZ/C DLPNO-CCSD(T1) TightSCF NormalPNO UNO MiniPrint AutoAux
|  2> %pal nproc 10 end
|  3> %maxcore 20000
|  4> %mdci
|  5>      density none
|  6> end
|  7>
|  8> * xyz 0 6
|  9>  O     -0.34855500     -0.15891700     -0.55817200
| 10>  C     -1.25526700     -1.14028500     -0.39604000
| 11>  C     -2.57136400     -0.45195900      0.52948500
| 12>  C     -2.64412300      0.83750400     -0.06824500
| 13>  C     -3.45583300      1.07290800     -1.28927800
| 14> Fe      1.41846700      0.15314000     -0.05845900
| 15> Cl      1.69663400      2.22380200     -0.79667700
| 16>  C     -1.86525200      1.97101400      0.42979600
| 17> Cl      2.67677000     -1.40085800     -0.96999500
| 18> Cl      1.45298700      0.10550300      2.16465800
| 19>  H     -3.41180200     -1.08492600      0.23612300
| 20>  H     -2.24552800      2.93601700      0.08794700
| 21>  H     -1.69834000      1.96019300      1.50755100
| 22>  H     -0.86491900      1.83066700     -0.03235700
| 23>  H     -4.20449100      1.84295200     -1.05416200
| 24>  H     -2.82477800      1.50013700     -2.08061200
| 25>  H     -3.96752700      0.18302100     -1.65442000
| 26>  C     -2.27860900     -0.50524100      2.02925900
| 27>  H     -3.00484500      0.10597600      2.57593500
| 28>  H     -2.36943000     -1.52969000      2.39395900
| 29>  H     -1.27352400     -0.14929900      2.26598100
| 30>  C     -0.75549200     -2.33377800      0.42348400
| 31>  H     -1.54752200     -3.06637100      0.60534900
| 32>  H      0.03163500     -2.81014700     -0.17169300
| 33>  H     -0.31177800     -2.02456600      1.36957100
| 34>  C     -1.79808500     -1.61192200     -1.74909100
| 35>  H     -0.98868600     -2.15858400     -2.24311800
| 36>  H     -2.65611400     -2.28376100     -1.64496500
| 37>  H     -2.05853900     -0.77497100     -2.39775500
| 38> *
| 39>
| 40>
| 41>                          ****END OF INPUT****

CARTESIAN COORDINATES (ANGSTROEM)
---------------------------------
  O     -0.348555   -0.158917   -0.558172
  C     -1.255267   -1.140285   -0.396040
  C     -2.571364   -0.451959    0.529485
  C     -2.644123    0.837504   -0.068245
  C     -3.455833    1.072908   -1.289278
  Fe     1.418467    0.153140   -0.058459
  Cl     1.696634    2.223802   -0.796677
  C     -1.865252    1.971014    0.429796
  Cl     2.676770   -1.400858   -0.969995
  Cl     1.452987    0.105503    2.164658
  H     -3.411802   -1.084926    0.236123
  H     -2.245528    2.936017    0.087947
  H     -1.698340    1.960193    1.507551
  H     -0.864919    1.830667   -0.032357
  H     -4.204491    1.842952   -1.054162
  H     -2.824778    1.500137   -2.080612
  H     -3.967527    0.183021   -1.654420
  C     -2.278609   -0.505241    2.029259
  H     -3.004845    0.105976    2.575935
  H     -2.369430   -1.529690    2.393959
  H     -1.273524   -0.149299    2.265981
  C     -0.755492   -2.333778    0.423484
  H     -1.547522   -3.066371    0.605349
  H      0.031635   -2.810147   -0.171693
  H     -0.311778   -2.024566    1.369571
  C     -1.798085   -1.611922   -1.749091
  H     -0.988686   -2.158584   -2.243118
  H     -2.656114   -2.283761   -1.644965
  H     -2.058539   -0.774971   -2.397755

ORBITAL ENERGIES
----------------
                 SPIN UP ORBITALS
  NO   OCC          E(Eh)            E(eV)
   0   1.0000    -261.542851     -7116.9428
   1   1.0000    -104.771369     -2850.9739
   2   1.0000    -104.770309     -2850.9450
   3   1.0000    -104.768267     -2850.8895
   4   1.0000     -32.210783      -876.5000
   5   1.0000     -27.686597      -753.3906
   6   1.0000     -27.686590      -753.3904
   7   1.0000     -27.686224      -753.3805
   8   1.0000     -20.537294      -558.8482
   9   1.0000     -11.395545      -310.0885
  10   1.0000     -11.354744      -308.9783
  11   1.0000     -11.299908      -307.4861
  12   1.0000     -11.287456      -307.1473
  13   1.0000     -11.273068      -306.7558
  14   1.0000     -11.253274      -306.2172
  15   1.0000     -11.244195      -305.9701
  16   1.0000     -11.235459      -305.7324
  17   1.0000     -10.497955      -285.6639
  18   1.0000     -10.496829      -285.6332
  19   1.0000     -10.494850      -285.5794
  20   1.0000      -7.964853      -216.7347
  21   1.0000      -7.963991      -216.7112
  22   1.0000      -7.963931      -216.7096
  23   1.0000      -7.963664      -216.7023
  24   1.0000      -7.962911      -216.6818
  25   1.0000      -7.962816      -216.6792
  26   1.0000      -7.961647      -216.6474
  27   1.0000      -7.960961      -216.6288
  28   1.0000      -7.960883      -216.6266
  29   1.0000      -4.566271      -124.2545
  30   1.0000      -3.178741       -86.4979
  31   1.0000      -3.178458       -86.4902
  32   1.0000      -3.177901       -86.4751
  33   1.0000      -1.373992       -37.3882
  34   1.0000      -1.196654       -32.5626
  35   1.0000      -1.086909       -29.5763
  36   1.0000      -1.045020       -28.4364
  37   1.0000      -1.042050       -28.3556
  38   1.0000      -1.036875       -28.2148
  39   1.0000      -1.034893       -28.1609
  40   1.0000      -1.016275       -27.6542
  41   1.0000      -0.969680       -26.3863
  42   1.0000      -0.933762       -25.4090
  43   1.0000      -0.907592       -24.6968
  44   1.0000      -0.895862       -24.3777
  45   1.0000      -0.895762       -24.3749
  46   1.0000      -0.887612       -24.1532
  47   1.0000      -0.887363       -24.1464
  48   1.0000      -0.796114       -21.6634
  49   1.0000      -0.767016       -20.8716
  50   1.0000      -0.710739       -19.3402
  51   1.0000      -0.695217       -18.9178
  52   1.0000      -0.676357       -18.4046
  53   1.0000      -0.648293       -17.6409
  54   1.0000      -0.645600       -17.5677
  55   1.0000      -0.629243       -17.1226
  56   1.0000      -0.605344       -16.4722
  57   1.0000      -0.600603       -16.3432
  58   1.0000      -0.591336       -16.0911
  59   1.0000      -0.585889       -15.9429
  60   1.0000      -0.572540       -15.5796
  61   1.0000      -0.560354       -15.2480
  62   1.0000      -0.556959       -15.1556
  63   1.0000      -0.538321       -14.6485
  64   1.0000      -0.529267       -14.4021
  65   1.0000      -0.521410       -14.1883
  66   1.0000      -0.504711       -13.7339
  67   1.0000      -0.466218       -12.6864
  68   1.0000      -0.459913       -12.5149
  69   1.0000      -0.443600       -12.0710
  70   1.0000      -0.426598       -11.6083
  71   1.0000      -0.421738       -11.4761
  72   1.0000      -0.417552       -11.3622
  73   1.0000      -0.411076       -11.1859
  74   1.0000      -0.408753       -11.1227
  75   1.0000      -0.408099       -11.1049
  76   1.0000      -0.405895       -11.0450
  77   0.0000       0.001858         0.0506
  78   0.0000       0.004122         0.1122
  79   0.0000       0.018224         0.4959
  80   0.0000       0.019586         0.5330
  81   0.0000       0.028986         0.7887

                 SPIN DOWN ORBITALS
  NO   OCC          E(Eh)            E(eV)
   0   1.0000    -261.539304     -7116.8463
   1   1.0000    -104.770025     -2850.9373
   2   1.0000    -104.768985     -2850.9090
   3   1.0000    -104.766855     -2850.8511
   4   1.0000     -32.048751      -872.0909
   5   1.0000     -27.526864      -749.0441
   6   1.0000     -27.526648      -749.0382
   7   1.0000     -27.526134      -749.0242
   8   1.0000     -20.531402      -558.6878
   9   1.0000     -11.395559      -310.0889
  10   1.0000     -11.354648      -308.9757
  11   1.0000     -11.299908      -307.4861
  12   1.0000     -11.287272      -307.1423
  13   1.0000     -11.273103      -306.7567
  14   1.0000     -11.253295      -306.2177
  15   1.0000     -11.244083      -305.9671
  16   1.0000     -11.235414      -305.7311
  17   1.0000     -10.496507      -285.6245
  18   1.0000     -10.495409      -285.5946
  19   1.0000     -10.493339      -285.5383
  20   1.0000      -7.962367      -216.6670
  21   1.0000      -7.961890      -216.6540
  22   1.0000      -7.961812      -216.6519
  23   1.0000      -7.961340      -216.6391
  24   1.0000      -7.960765      -216.6234
  25   1.0000      -7.960664      -216.6207
  26   1.0000      -7.959330      -216.5844
  27   1.0000      -7.958578      -216.5639
  28   1.0000      -7.958508      -216.5620
  29   1.0000      -4.124110      -112.2227
  30   1.0000      -2.646029       -72.0021
  31   1.0000      -2.645953       -72.0000
  32   1.0000      -2.645007       -71.9743
  33   1.0000      -1.358936       -36.9785
  34   1.0000      -1.195708       -32.5369
  35   1.0000      -1.084358       -29.5069
  36   1.0000      -1.043719       -28.4010
  37   1.0000      -1.028012       -27.9736
  38   1.0000      -1.017446       -27.6861
  39   1.0000      -1.015749       -27.6399
  40   1.0000      -1.014715       -27.6118
  41   1.0000      -0.968812       -26.3627
  42   1.0000      -0.932742       -25.3812
  43   1.0000      -0.801414       -21.8076
  44   1.0000      -0.774154       -21.0658
  45   1.0000      -0.711434       -19.3591
  46   1.0000      -0.694446       -18.8968
  47   1.0000      -0.676738       -18.4150
  48   1.0000      -0.650448       -17.6996
  49   1.0000      -0.644670       -17.5424
  50   1.0000      -0.627791       -17.0831
  51   1.0000      -0.605488       -16.4762
  52   1.0000      -0.600873       -16.3506
  53   1.0000      -0.589872       -16.0512
  54   1.0000      -0.586067       -15.9477
  55   1.0000      -0.571222       -15.5437
  56   1.0000      -0.560091       -15.2409
  57   1.0000      -0.556256       -15.1365
  58   1.0000      -0.537382       -14.6229
  59   1.0000      -0.528315       -14.3762
  60   1.0000      -0.516197       -14.0464
  61   1.0000      -0.498254       -13.5582
  62   1.0000      -0.465704       -12.6724
  63   1.0000      -0.461990       -12.5714
  64   1.0000      -0.449592       -12.2340
  65   1.0000      -0.433098       -11.7852
  66   1.0000      -0.431389       -11.7387
  67   1.0000      -0.428625       -11.6635
  68   1.0000      -0.426867       -11.6157
  69   1.0000      -0.407397       -11.0858
  70   1.0000      -0.395762       -10.7692
  71   1.0000      -0.394661       -10.7393
  72   0.0000       0.001608         0.0438
  73   0.0000       0.004084         0.1111
  74   0.0000       0.018224         0.4959
  75   0.0000       0.019572         0.5326
  76   0.0000       0.029007         0.7893

E(0)                                       ...  -3028.424033009
E(0)                                       ...  -3028.424033009
E(CORR)(strong-pairs)                      ...     -2.872773741
E(CORR)(weak-pairs)                        ...     -0.035877335
E(CORR)(corrected)                         ...     -2.908651075
E(TOT)                                     ...  -3031.332684085
E(CCSD(T))                                 ...  -3031.451376235
FINAL SINGLE POINT ENERGY     -3031.451376235025

DIPOLE MOMENT
-------------
                                X             Y             Z
Electronic contribution:     40.08185       7.13707       0.30232
Nuclear contribution   :    -45.44421      -7.16872      -0.56963
                        -----------------------------------------
Total Dipole Moment    :     -5.36236      -0.03165      -0.26731
                        -----------------------------------------
Magnitude (a.u.)       :      5.36912
Magnitude (Debye)      :     13.64721

Rotational constants in cm-1:     0.019202     0.011284     0.010551
Rotational constants in MHz :   575.676183   338.296629   316.309881

                             ****ORCA TERMINATED NORMALLY****
TOTAL RUN TIME: 0 days 19 hours 23 minutes 1 seconds 77 msec
