                         Program Version 4.1.2  - RELEASE  -
|  1> ! aug-cc-pVTZ aug-cc-pVTZ/C DLPNO-CCSD(T1) TightSCF NormalPNO UNO MiniPrint AutoAux
|  2> %pal nproc 10 end
|  3> %maxcore 20000
|  4> %mdci
|  5>      density none
|  6> end
|  7>
|  8> * xyz 0 6
|  9>  O     -0.28387600     -0.21858700     -0.74726600
| 10>  C     -1.11093100     -1.16548000     -0.62378700
| 11>  C     -3.16234800     -0.02264000      0.23388400
| 12>  C     -2.43774300      1.03300400     -0.20243500
| 13>  C     -2.53295400      1.52433000     -1.61749900
| 14> Fe      1.46732100      0.10301600      0.04781700
| 15> Cl      2.10406800      1.99086000     -0.83703000
| 16>  C     -1.57427300      1.87390500      0.68961400
| 17> Cl      2.54773000     -1.68888000     -0.60829600
| 18> Cl      1.25794900      0.16533500      2.23465000
| 19>  H     -3.83290900     -0.49624400     -0.48180300
| 20>  H     -2.13518100      2.77381100      0.97862200
| 21>  H     -1.26112300      1.36959400      1.60383500
| 22>  H     -0.68174100      2.22042800      0.15915800
| 23>  H     -2.83588900      2.57925900     -1.61627200
| 24>  H     -1.55100800      1.48284400     -2.10444800
| 25>  H     -3.26171300      0.96603100     -2.21136300
| 26>  C     -3.36444500     -0.43012900      1.66847300
| 27>  H     -4.26234900      0.05968400      2.06924700
| 28>  H     -3.52614400     -1.50828200      1.76623100
| 29>  H     -2.52855100     -0.15138000      2.31481900
| 30>  C     -1.01773300     -2.09546000      0.54681500
| 31>  H     -1.90745400     -2.71514800      0.65826900
| 32>  H     -0.16151300     -2.75335600      0.33318300
| 33>  H     -0.79262800     -1.56463100      1.47202800
| 34>  C     -1.78085000     -1.66667100     -1.87052000
| 35>  H     -1.06125000     -2.36180600     -2.32812000
| 36>  H     -2.69874300     -2.21746200     -1.66140700
| 37>  H     -1.95916100     -0.86256800     -2.58287400
| 38> *
| 39>
| 40>
| 41>                          ****END OF INPUT****

CARTESIAN COORDINATES (ANGSTROEM)
---------------------------------
  O     -0.283876   -0.218587   -0.747266
  C     -1.110931   -1.165480   -0.623787
  C     -3.162348   -0.022640    0.233884
  C     -2.437743    1.033004   -0.202435
  C     -2.532954    1.524330   -1.617499
  Fe     1.467321    0.103016    0.047817
  Cl     2.104068    1.990860   -0.837030
  C     -1.574273    1.873905    0.689614
  Cl     2.547730   -1.688880   -0.608296
  Cl     1.257949    0.165335    2.234650
  H     -3.832909   -0.496244   -0.481803
  H     -2.135181    2.773811    0.978622
  H     -1.261123    1.369594    1.603835
  H     -0.681741    2.220428    0.159158
  H     -2.835889    2.579259   -1.616272
  H     -1.551008    1.482844   -2.104448
  H     -3.261713    0.966031   -2.211363
  C     -3.364445   -0.430129    1.668473
  H     -4.262349    0.059684    2.069247
  H     -3.526144   -1.508282    1.766231
  H     -2.528551   -0.151380    2.314819
  C     -1.017733   -2.095460    0.546815
  H     -1.907454   -2.715148    0.658269
  H     -0.161513   -2.753356    0.333183
  H     -0.792628   -1.564631    1.472028
  C     -1.780850   -1.666671   -1.870520
  H     -1.061250   -2.361806   -2.328120
  H     -2.698743   -2.217462   -1.661407
  H     -1.959161   -0.862568   -2.582874

ORBITAL ENERGIES
----------------
                 SPIN UP ORBITALS
  NO   OCC          E(Eh)            E(eV)
   0   1.0000    -261.572771     -7117.7570
   1   1.0000    -104.790983     -2851.5076
   2   1.0000    -104.788593     -2851.4426
   3   1.0000    -104.787348     -2851.4087
   4   1.0000     -32.240496      -877.3085
   5   1.0000     -27.716913      -754.2155
   6   1.0000     -27.715874      -754.1873
   7   1.0000     -27.715713      -754.1829
   8   1.0000     -20.607245      -560.7517
   9   1.0000     -11.421549      -310.7962
  10   1.0000     -11.278818      -306.9122
  11   1.0000     -11.275899      -306.8328
  12   1.0000     -11.270224      -306.6784
  13   1.0000     -11.248141      -306.0775
  14   1.0000     -11.244463      -305.9774
  15   1.0000     -11.243799      -305.9593
  16   1.0000     -11.234552      -305.7077
  17   1.0000     -10.517675      -286.2005
  18   1.0000     -10.515247      -286.1344
  19   1.0000     -10.513956      -286.0993
  20   1.0000      -7.984515      -217.2697
  21   1.0000      -7.983750      -217.2489
  22   1.0000      -7.983703      -217.2476
  23   1.0000      -7.982135      -217.2049
  24   1.0000      -7.981342      -217.1834
  25   1.0000      -7.981267      -217.1813
  26   1.0000      -7.980747      -217.1672
  27   1.0000      -7.980078      -217.1490
  28   1.0000      -7.980024      -217.1475
  29   1.0000      -4.595466      -125.0490
  30   1.0000      -3.208578       -87.3098
  31   1.0000      -3.206937       -87.2652
  32   1.0000      -3.206761       -87.2604
  33   1.0000      -1.456677       -39.6382
  34   1.0000      -1.134335       -30.8668
  35   1.0000      -1.099335       -29.9144
  36   1.0000      -1.064071       -28.9549
  37   1.0000      -1.058544       -28.8045
  38   1.0000      -1.056189       -28.7404
  39   1.0000      -1.024672       -27.8827
  40   1.0000      -1.010241       -27.4900
  41   1.0000      -0.963691       -26.2234
  42   1.0000      -0.940333       -25.5878
  43   1.0000      -0.924523       -25.1575
  44   1.0000      -0.924392       -25.1540
  45   1.0000      -0.913753       -24.8645
  46   1.0000      -0.913507       -24.8578
  47   1.0000      -0.902725       -24.5644
  48   1.0000      -0.809665       -22.0321
  49   1.0000      -0.735084       -20.0027
  50   1.0000      -0.707989       -19.2654
  51   1.0000      -0.699854       -19.0440
  52   1.0000      -0.688900       -18.7459
  53   1.0000      -0.660015       -17.9599
  54   1.0000      -0.626727       -17.0541
  55   1.0000      -0.620931       -16.8964
  56   1.0000      -0.603250       -16.4153
  57   1.0000      -0.600619       -16.3437
  58   1.0000      -0.584885       -15.9155
  59   1.0000      -0.578933       -15.7536
  60   1.0000      -0.560668       -15.2566
  61   1.0000      -0.557112       -15.1598
  62   1.0000      -0.553146       -15.0519
  63   1.0000      -0.542493       -14.7620
  64   1.0000      -0.533803       -14.5255
  65   1.0000      -0.528638       -14.3850
  66   1.0000      -0.500063       -13.6074
  67   1.0000      -0.498331       -13.5603
  68   1.0000      -0.475670       -12.9436
  69   1.0000      -0.472722       -12.8634
  70   1.0000      -0.444436       -12.0937
  71   1.0000      -0.438427       -11.9302
  72   1.0000      -0.437004       -11.8915
  73   1.0000      -0.428382       -11.6569
  74   1.0000      -0.426895       -11.6164
  75   1.0000      -0.426448       -11.6042
  76   1.0000      -0.362377        -9.8608
  77   0.0000       0.012658         0.3444
  78   0.0000       0.023487         0.6391
  79   0.0000       0.023865         0.6494
  80   0.0000       0.030453         0.8287
  81   0.0000       0.039373         1.0714

                 SPIN DOWN ORBITALS
  NO   OCC          E(Eh)            E(eV)
   0   1.0000    -261.569200     -7117.6598
   1   1.0000    -104.789502     -2851.4673
   2   1.0000    -104.787064     -2851.4010
   3   1.0000    -104.785821     -2851.3672
   4   1.0000     -32.078496      -872.9002
   5   1.0000     -27.556421      -749.8483
   6   1.0000     -27.556355      -749.8465
   7   1.0000     -27.556193      -749.8421
   8   1.0000     -20.603589      -560.6522
   9   1.0000     -11.421412      -310.7924
  10   1.0000     -11.278868      -306.9136
  11   1.0000     -11.275794      -306.8300
  12   1.0000     -11.270219      -306.6783
  13   1.0000     -11.248007      -306.0738
  14   1.0000     -11.244477      -305.9778
  15   1.0000     -11.243789      -305.9591
  16   1.0000     -11.234564      -305.7080
  17   1.0000     -10.516091      -286.1574
  18   1.0000     -10.513615      -286.0900
  19   1.0000     -10.512332      -286.0551
  20   1.0000      -7.982004      -217.2014
  21   1.0000      -7.981293      -217.1820
  22   1.0000      -7.981241      -217.1806
  23   1.0000      -7.979486      -217.1329
  24   1.0000      -7.978840      -217.1153
  25   1.0000      -7.978740      -217.1126
  26   1.0000      -7.978321      -217.1011
  27   1.0000      -7.977459      -217.0777
  28   1.0000      -7.977377      -217.0755
  29   1.0000      -4.153310      -113.0173
  30   1.0000      -2.674876       -72.7871
  31   1.0000      -2.674834       -72.7859
  32   1.0000      -2.674391       -72.7739
  33   1.0000      -1.447538       -39.3895
  34   1.0000      -1.133944       -30.8562
  35   1.0000      -1.096905       -29.8483
  36   1.0000      -1.048664       -28.5356
  37   1.0000      -1.036244       -28.1976
  38   1.0000      -1.034004       -28.1367
  39   1.0000      -1.024202       -27.8700
  40   1.0000      -1.009501       -27.4699
  41   1.0000      -0.963553       -26.2196
  42   1.0000      -0.903028       -24.5726
  43   1.0000      -0.822808       -22.3898
  44   1.0000      -0.735136       -20.0041
  45   1.0000      -0.710525       -19.3344
  46   1.0000      -0.699079       -19.0229
  47   1.0000      -0.687943       -18.7199
  48   1.0000      -0.659956       -17.9583
  49   1.0000      -0.626616       -17.0511
  50   1.0000      -0.620466       -16.8837
  51   1.0000      -0.602996       -16.4084
  52   1.0000      -0.600582       -16.3427
  53   1.0000      -0.584560       -15.9067
  54   1.0000      -0.578265       -15.7354
  55   1.0000      -0.560083       -15.2406
  56   1.0000      -0.556883       -15.1536
  57   1.0000      -0.550706       -14.9855
  58   1.0000      -0.542480       -14.7616
  59   1.0000      -0.531741       -14.4694
  60   1.0000      -0.519748       -14.1430
  61   1.0000      -0.500625       -13.6227
  62   1.0000      -0.498280       -13.5589
  63   1.0000      -0.482488       -13.1292
  64   1.0000      -0.480845       -13.0844
  65   1.0000      -0.451748       -12.2927
  66   1.0000      -0.448610       -12.2073
  67   1.0000      -0.446041       -12.1374
  68   1.0000      -0.430003       -11.7010
  69   1.0000      -0.427371       -11.6293
  70   1.0000      -0.411651       -11.2016
  71   1.0000      -0.361454        -9.8357
  72   0.0000       0.012644         0.3441
  73   0.0000       0.023460         0.6384
  74   0.0000       0.023839         0.6487
  75   0.0000       0.030417         0.8277
  76   0.0000       0.039278         1.0688

E(0)                                       ...  -3028.451607507
E(0)                                       ...  -3028.451607507
E(CORR)(strong-pairs)                      ...     -2.869616637
E(CORR)(weak-pairs)                        ...     -0.036283488
E(CORR)(corrected)                         ...     -2.905900125
E(TOT)                                     ...  -3031.357507632
E(CCSD(T))                                 ...  -3031.476031125
FINAL SINGLE POINT ENERGY     -3031.476031125029

DIPOLE MOMENT
-------------
                                X             Y             Z
Electronic contribution:     43.20919       3.01016       2.22927
Nuclear contribution   :    -46.76070      -4.09055      -2.84711
                        -----------------------------------------
Total Dipole Moment    :     -3.55152      -1.08039      -0.61784
                        -----------------------------------------
Magnitude (a.u.)       :      3.76328
Magnitude (Debye)      :      9.56549

Rotational constants in cm-1:     0.019161     0.010908     0.010276
Rotational constants in MHz :   574.419645   327.001793   308.080516

                             ****ORCA TERMINATED NORMALLY****
TOTAL RUN TIME: 0 days 18 hours 25 minutes 45 seconds 393 msec
