                         Program Version 4.1.2  - RELEASE  -
|  1> ! aug-cc-pVTZ aug-cc-pVTZ/C DLPNO-CCSD(T1) TightSCF NormalPNO UNO MiniPrint AutoAux
|  2> %pal nproc 10 end
|  3> %maxcore 20000
|  4> %mdci
|  5>      density none
|  6> end
|  7>
|  8> * xyz 0 6
|  9>  O      0.16016000      0.46422500     -0.88342100
| 10>  C      0.89367200      1.44839400     -0.65460500
| 11>  C      3.18071600      0.03346400      0.55779000
| 12>  C      2.68310300     -0.92515600     -0.24558800
| 13>  C      3.11390400     -1.03985900     -1.68473300
| 14> Fe     -1.48857800     -0.18125100      0.02143400
| 15> Cl     -2.06292700     -1.95659300     -1.08856500
| 16>  C      1.73559700     -2.00335400      0.19868000
| 17> Cl     -2.77195200      1.56952600     -0.25102400
| 18> Cl     -1.02412900     -0.53421100      2.13357500
| 19>  H      3.91144700      0.71783200      0.12334500
| 20>  H      2.23373100     -2.98078700      0.14187400
| 21>  H      1.36573000     -1.87277700      1.21541900
| 22>  H      0.87284600     -2.06439000     -0.47627300
| 23>  H      3.60936600     -2.00450200     -1.85696800
| 24>  H      2.24540600     -1.01707800     -2.35621700
| 25>  H      3.81039800     -0.24812100     -1.97704200
| 26>  C      2.95586300      0.19330700      2.03607700
| 27>  H      3.79552200     -0.23482500      2.60091500
| 28>  H      2.90097100      1.25091300      2.31858800
| 29>  H      2.04174600     -0.29425400      2.38352100
| 30>  C      0.76091800      2.24125100      0.60564700
| 31>  H      1.63249100      2.87240300      0.78435300
| 32>  H     -0.12247900      2.88523900      0.48232400
| 33>  H      0.57093800      1.59342200      1.46280800
| 34>  C      1.73875300      1.98696200     -1.76503100
| 35>  H      1.23320900      2.88882300     -2.14024800
| 36>  H      2.72381900      2.28994000     -1.40481200
| 37>  H      1.82459000      1.26855900     -2.57869500
| 38> *
| 39>
| 40>
| 41>                          ****END OF INPUT****

CARTESIAN COORDINATES (ANGSTROEM)
---------------------------------
  O      0.160160    0.464225   -0.883421
  C      0.893672    1.448394   -0.654605
  C      3.180716    0.033464    0.557790
  C      2.683103   -0.925156   -0.245588
  C      3.113904   -1.039859   -1.684733
  Fe    -1.488578   -0.181251    0.021434
  Cl    -2.062927   -1.956593   -1.088565
  C      1.735597   -2.003354    0.198680
  Cl    -2.771952    1.569526   -0.251024
  Cl    -1.024129   -0.534211    2.133575
  H      3.911447    0.717832    0.123345
  H      2.233731   -2.980787    0.141874
  H      1.365730   -1.872777    1.215419
  H      0.872846   -2.064390   -0.476273
  H      3.609366   -2.004502   -1.856968
  H      2.245406   -1.017078   -2.356217
  H      3.810398   -0.248121   -1.977042
  C      2.955863    0.193307    2.036077
  H      3.795522   -0.234825    2.600915
  H      2.900971    1.250913    2.318588
  H      2.041746   -0.294254    2.383521
  C      0.760918    2.241251    0.605647
  H      1.632491    2.872403    0.784353
  H     -0.122479    2.885239    0.482324
  H      0.570938    1.593422    1.462808
  C      1.738753    1.986962   -1.765031
  H      1.233209    2.888823   -2.140248
  H      2.723819    2.289940   -1.404812
  H      1.824590    1.268559   -2.578695

ORBITAL ENERGIES
----------------
                 SPIN UP ORBITALS
  NO   OCC          E(Eh)            E(eV)
   0   1.0000    -261.579360     -7117.9363
   1   1.0000    -104.796191     -2851.6493
   2   1.0000    -104.793192     -2851.5677
   3   1.0000    -104.791196     -2851.5134
   4   1.0000     -32.247011      -877.4858
   5   1.0000     -27.723571      -754.3967
   6   1.0000     -27.722305      -754.3623
   7   1.0000     -27.722107      -754.3569
   8   1.0000     -20.629324      -561.3524
   9   1.0000     -11.422390      -310.8190
  10   1.0000     -11.280126      -306.9478
  11   1.0000     -11.274220      -306.7871
  12   1.0000     -11.257078      -306.3207
  13   1.0000     -11.239050      -305.8301
  14   1.0000     -11.237901      -305.7988
  15   1.0000     -11.233714      -305.6849
  16   1.0000     -11.225088      -305.4502
  17   1.0000     -10.522936      -286.3436
  18   1.0000     -10.519900      -286.2610
  19   1.0000     -10.517852      -286.2053
  20   1.0000      -7.989754      -217.4123
  21   1.0000      -7.989028      -217.3925
  22   1.0000      -7.988967      -217.3909
  23   1.0000      -7.986789      -217.3316
  24   1.0000      -7.985993      -217.3099
  25   1.0000      -7.985941      -217.3085
  26   1.0000      -7.984631      -217.2729
  27   1.0000      -7.983985      -217.2553
  28   1.0000      -7.983943      -217.2541
  29   1.0000      -4.601750      -125.2200
  30   1.0000      -3.214931       -87.4827
  31   1.0000      -3.213072       -87.4321
  32   1.0000      -3.212953       -87.4289
  33   1.0000      -1.472524       -40.0694
  34   1.0000      -1.118094       -30.4249
  35   1.0000      -1.103911       -30.0389
  36   1.0000      -1.069800       -29.1107
  37   1.0000      -1.063958       -28.9518
  38   1.0000      -1.061154       -28.8755
  39   1.0000      -1.020849       -27.7787
  40   1.0000      -1.008386       -27.4396
  41   1.0000      -0.952892       -25.9295
  42   1.0000      -0.945377       -25.7250
  43   1.0000      -0.930579       -25.3223
  44   1.0000      -0.930428       -25.3182
  45   1.0000      -0.919455       -25.0197
  46   1.0000      -0.918842       -25.0030
  47   1.0000      -0.890452       -24.2304
  48   1.0000      -0.818181       -22.2638
  49   1.0000      -0.723050       -19.6752
  50   1.0000      -0.716967       -19.5097
  51   1.0000      -0.706783       -19.2325
  52   1.0000      -0.684540       -18.6273
  53   1.0000      -0.648959       -17.6591
  54   1.0000      -0.621481       -16.9114
  55   1.0000      -0.615592       -16.7511
  56   1.0000      -0.604007       -16.4359
  57   1.0000      -0.599968       -16.3260
  58   1.0000      -0.586592       -15.9620
  59   1.0000      -0.580404       -15.7936
  60   1.0000      -0.561302       -15.2738
  61   1.0000      -0.547597       -14.9009
  62   1.0000      -0.546313       -14.8659
  63   1.0000      -0.538073       -14.6417
  64   1.0000      -0.535343       -14.5674
  65   1.0000      -0.521955       -14.2031
  66   1.0000      -0.507193       -13.8014
  67   1.0000      -0.487475       -13.2649
  68   1.0000      -0.479440       -13.0462
  69   1.0000      -0.478441       -13.0190
  70   1.0000      -0.449451       -12.2302
  71   1.0000      -0.442902       -12.0520
  72   1.0000      -0.441080       -12.0024
  73   1.0000      -0.432511       -11.7692
  74   1.0000      -0.431527       -11.7425
  75   1.0000      -0.430269       -11.7082
  76   1.0000      -0.354820        -9.6551
  77   0.0000       0.012695         0.3455
  78   0.0000       0.024003         0.6532
  79   0.0000       0.024883         0.6771
  80   0.0000       0.030984         0.8431
  81   0.0000       0.039540         1.0759

                 SPIN DOWN ORBITALS
  NO   OCC          E(Eh)            E(eV)
   0   1.0000    -261.575770     -7117.8386
   1   1.0000    -104.794683     -2851.6083
   2   1.0000    -104.791623     -2851.5250
   3   1.0000    -104.789610     -2851.4702
   4   1.0000     -32.085047      -873.0785
   5   1.0000     -27.563011      -750.0277
   6   1.0000     -27.562860      -750.0235
   7   1.0000     -27.562793      -750.0217
   8   1.0000     -20.626021      -561.2626
   9   1.0000     -11.422332      -310.8175
  10   1.0000     -11.280022      -306.9450
  11   1.0000     -11.274214      -306.7870
  12   1.0000     -11.257121      -306.3218
  13   1.0000     -11.238995      -305.8286
  14   1.0000     -11.237895      -305.7987
  15   1.0000     -11.233718      -305.6850
  16   1.0000     -11.225095      -305.4504
  17   1.0000     -10.521327      -286.2999
  18   1.0000     -10.518226      -286.2155
  19   1.0000     -10.516169      -286.1595
  20   1.0000      -7.987261      -217.3444
  21   1.0000      -7.986478      -217.3231
  22   1.0000      -7.986443      -217.3222
  23   1.0000      -7.984094      -217.2582
  24   1.0000      -7.983415      -217.2398
  25   1.0000      -7.983322      -217.2372
  26   1.0000      -7.982169      -217.2059
  27   1.0000      -7.981235      -217.1804
  28   1.0000      -7.981155      -217.1783
  29   1.0000      -4.159755      -113.1927
  30   1.0000      -2.681290       -72.9616
  31   1.0000      -2.681242       -72.9603
  32   1.0000      -2.680842       -72.9494
  33   1.0000      -1.464543       -39.8522
  34   1.0000      -1.117791       -30.4166
  35   1.0000      -1.101782       -29.9810
  36   1.0000      -1.053937       -28.6791
  37   1.0000      -1.041287       -28.3349
  38   1.0000      -1.038117       -28.2486
  39   1.0000      -1.019829       -27.7510
  40   1.0000      -1.008220       -27.4351
  41   1.0000      -0.952740       -25.9254
  42   1.0000      -0.890514       -24.2321
  43   1.0000      -0.830312       -22.5940
  44   1.0000      -0.723189       -19.6790
  45   1.0000      -0.718340       -19.5470
  46   1.0000      -0.706076       -19.2133
  47   1.0000      -0.684005       -18.6127
  48   1.0000      -0.648920       -17.6580
  49   1.0000      -0.620881       -16.8950
  50   1.0000      -0.615515       -16.7490
  51   1.0000      -0.603899       -16.4329
  52   1.0000      -0.599903       -16.3242
  53   1.0000      -0.586296       -15.9539
  54   1.0000      -0.578935       -15.7536
  55   1.0000      -0.560451       -15.2506
  56   1.0000      -0.546688       -14.8761
  57   1.0000      -0.544395       -14.8138
  58   1.0000      -0.535409       -14.5692
  59   1.0000      -0.527624       -14.3574
  60   1.0000      -0.521730       -14.1970
  61   1.0000      -0.509100       -13.8533
  62   1.0000      -0.488743       -13.2994
  63   1.0000      -0.486317       -13.2334
  64   1.0000      -0.485003       -13.1976
  65   1.0000      -0.456337       -12.4176
  66   1.0000      -0.453279       -12.3343
  67   1.0000      -0.450097       -12.2478
  68   1.0000      -0.433592       -11.7986
  69   1.0000      -0.431808       -11.7501
  70   1.0000      -0.415474       -11.3056
  71   1.0000      -0.354511        -9.6467
  72   0.0000       0.012679         0.3450
  73   0.0000       0.023979         0.6525
  74   0.0000       0.024842         0.6760
  75   0.0000       0.030936         0.8418
  76   0.0000       0.039470         1.0740

E(0)                                       ...  -3028.474994607
E(0)                                       ...  -3028.474994607
E(CORR)(strong-pairs)                      ...     -2.864246016
E(CORR)(weak-pairs)                        ...     -0.035435294
E(CORR)(corrected)                         ...     -2.899681309
E(TOT)                                     ...  -3031.374675917
E(CCSD(T))                                 ...  -3031.492031559
FINAL SINGLE POINT ENERGY     -3031.492031558556

DIPOLE MOMENT
-------------
                                X             Y             Z
Electronic contribution:    -43.90231      -5.14000       1.81223
Nuclear contribution   :     46.95260       6.81140      -2.41746
                        -----------------------------------------
Total Dipole Moment    :      3.05029       1.67140      -0.60523
                        -----------------------------------------
Magnitude (a.u.)       :      3.53046
Magnitude (Debye)      :      8.97372

Rotational constants in cm-1:     0.018630     0.010559     0.009942
Rotational constants in MHz :   558.520548   316.555565   298.062346

                             ****ORCA TERMINATED NORMALLY****
TOTAL RUN TIME: 0 days 16 hours 38 minutes 13 seconds 381 msec
