                         Program Version 4.1.2  - RELEASE  -
|  1> ! aug-cc-pVTZ aug-cc-pVTZ/C DLPNO-CCSD(T1) TightSCF NormalPNO UNO MiniPrint AutoAux
|  2> %pal nproc 10 end
|  3> %maxcore 20000
|  4> %mdci
|  5>      density none
|  6> end
|  7>
|  8> * xyz 0 6
|  9>  O     -0.22424700     -0.31033100     -0.83095900
| 10>  C     -1.07524300     -1.23090700     -0.64705000
| 11>  C     -2.89152500     -0.25175200      0.57866600
| 12>  C     -2.68973500      0.91239700     -0.09018900
| 13>  C     -3.33136600      1.18227000     -1.41999600
| 14> Fe      1.47728800      0.15856200     -0.01362500
| 15> Cl      2.02493900      2.03977400     -0.97035000
| 16>  C     -1.78232100      1.99633500      0.39982700
| 17> Cl      2.71828300     -1.57399100     -0.51462400
| 18> Cl      1.15068800      0.34962200      2.15428700
| 19>  H     -3.61477600     -0.94494300      0.15104300
| 20>  H     -2.31408900      2.95592800      0.42229600
| 21>  H     -1.36214600      1.80604800      1.38677200
| 22>  H     -0.94958700      2.12283700     -0.30638600
| 23>  H     -3.93894800      2.09418600     -1.35500200
| 24>  H     -2.57114000      1.37446900     -2.18914000
| 25>  H     -3.98056100      0.36734700     -1.74953800
| 26>  C     -2.57732600     -0.46825100      2.04031200
| 27>  H     -3.32090900      0.05587800      2.65473100
| 28>  H     -2.63408200     -1.52576400      2.30896900
| 29>  H     -1.59183900     -0.09805300      2.33045400
| 30>  C     -0.82466100     -2.26851300      0.41097900
| 31>  H     -1.70307600     -2.88326100      0.61066900
| 32>  H     -0.03398700     -2.91313100     -0.00042000
| 33>  H     -0.43950700     -1.83388600      1.33287700
| 34>  C     -1.87156000     -1.65790400     -1.85170100
| 35>  H     -1.22751800     -2.36375600     -2.39525400
| 36>  H     -2.79314800     -2.17850300     -1.58821400
| 37>  H     -2.07426500     -0.81929800     -2.51537100
| 38> *
| 39>
| 40>
| 41>                          ****END OF INPUT****

CARTESIAN COORDINATES (ANGSTROEM)
---------------------------------
  O     -0.224247   -0.310331   -0.830959
  C     -1.075243   -1.230907   -0.647050
  C     -2.891525   -0.251752    0.578666
  C     -2.689735    0.912397   -0.090189
  C     -3.331366    1.182270   -1.419996
  Fe     1.477288    0.158562   -0.013625
  Cl     2.024939    2.039774   -0.970350
  C     -1.782321    1.996335    0.399827
  Cl     2.718283   -1.573991   -0.514624
  Cl     1.150688    0.349622    2.154287
  H     -3.614776   -0.944943    0.151043
  H     -2.314089    2.955928    0.422296
  H     -1.362146    1.806048    1.386772
  H     -0.949587    2.122837   -0.306386
  H     -3.938948    2.094186   -1.355002
  H     -2.571140    1.374469   -2.189140
  H     -3.980561    0.367347   -1.749538
  C     -2.577326   -0.468251    2.040312
  H     -3.320909    0.055878    2.654731
  H     -2.634082   -1.525764    2.308969
  H     -1.591839   -0.098053    2.330454
  C     -0.824661   -2.268513    0.410979
  H     -1.703076   -2.883261    0.610669
  H     -0.033987   -2.913131   -0.000420
  H     -0.439507   -1.833886    1.332877
  C     -1.871560   -1.657904   -1.851701
  H     -1.227518   -2.363756   -2.395254
  H     -2.793148   -2.178503   -1.588214
  H     -2.074265   -0.819298   -2.515371

ORBITAL ENERGIES
----------------
                 SPIN UP ORBITALS
  NO   OCC          E(Eh)            E(eV)
   0   1.0000    -261.570128     -7117.6850
   1   1.0000    -104.790497     -2851.4944
   2   1.0000    -104.786727     -2851.3918
   3   1.0000    -104.784704     -2851.3367
   4   1.0000     -32.237905      -877.2380
   5   1.0000     -27.714276      -754.1438
   6   1.0000     -27.713314      -754.1176
   7   1.0000     -27.713116      -754.1122
   8   1.0000     -20.606939      -560.7433
   9   1.0000     -11.418265      -310.7068
  10   1.0000     -11.285583      -307.0963
  11   1.0000     -11.273904      -306.7785
  12   1.0000     -11.269038      -306.6461
  13   1.0000     -11.252386      -306.1930
  14   1.0000     -11.252347      -306.1919
  15   1.0000     -11.238938      -305.8270
  16   1.0000     -11.236643      -305.7646
  17   1.0000     -10.517203      -286.1877
  18   1.0000     -10.513404      -286.0843
  19   1.0000     -10.511330      -286.0278
  20   1.0000      -7.984048      -217.2570
  21   1.0000      -7.983266      -217.2357
  22   1.0000      -7.983229      -217.2347
  23   1.0000      -7.980266      -217.1541
  24   1.0000      -7.979504      -217.1333
  25   1.0000      -7.979449      -217.1319
  26   1.0000      -7.978132      -217.0960
  27   1.0000      -7.977456      -217.0776
  28   1.0000      -7.977396      -217.0760
  29   1.0000      -4.592925      -124.9799
  30   1.0000      -3.206002       -87.2398
  31   1.0000      -3.204437       -87.1972
  32   1.0000      -3.204246       -87.1920
  33   1.0000      -1.450461       -39.4691
  34   1.0000      -1.138190       -30.9717
  35   1.0000      -1.095799       -29.8182
  36   1.0000      -1.062926       -28.9237
  37   1.0000      -1.057014       -28.7628
  38   1.0000      -1.053827       -28.6761
  39   1.0000      -1.025911       -27.9164
  40   1.0000      -1.005872       -27.3712
  41   1.0000      -0.967611       -26.3300
  42   1.0000      -0.938187       -25.5294
  43   1.0000      -0.921969       -25.0881
  44   1.0000      -0.921851       -25.0848
  45   1.0000      -0.911656       -24.8074
  46   1.0000      -0.910876       -24.7862
  47   1.0000      -0.903466       -24.5846
  48   1.0000      -0.807770       -21.9805
  49   1.0000      -0.739452       -20.1215
  50   1.0000      -0.704207       -19.1624
  51   1.0000      -0.694595       -18.9009
  52   1.0000      -0.683085       -18.5877
  53   1.0000      -0.662648       -18.0316
  54   1.0000      -0.628956       -17.1148
  55   1.0000      -0.621586       -16.9142
  56   1.0000      -0.605589       -16.4789
  57   1.0000      -0.597625       -16.2622
  58   1.0000      -0.584049       -15.8928
  59   1.0000      -0.576140       -15.6776
  60   1.0000      -0.561370       -15.2756
  61   1.0000      -0.558151       -15.1881
  62   1.0000      -0.547880       -14.9086
  63   1.0000      -0.545658       -14.8481
  64   1.0000      -0.534705       -14.5501
  65   1.0000      -0.529765       -14.4156
  66   1.0000      -0.502462       -13.6727
  67   1.0000      -0.496881       -13.5208
  68   1.0000      -0.473751       -12.8914
  69   1.0000      -0.471511       -12.8305
  70   1.0000      -0.442734       -12.0474
  71   1.0000      -0.437246       -11.8981
  72   1.0000      -0.435257       -11.8439
  73   1.0000      -0.426763       -11.6128
  74   1.0000      -0.425517       -11.5789
  75   1.0000      -0.424226       -11.5438
  76   1.0000      -0.366087        -9.9617
  77   0.0000       0.012111         0.3296
  78   0.0000       0.022584         0.6145
  79   0.0000       0.023624         0.6428
  80   0.0000       0.030065         0.8181
  81   0.0000       0.038724         1.0537

                 SPIN DOWN ORBITALS
  NO   OCC          E(Eh)            E(eV)
   0   1.0000    -261.566556     -7117.5878
   1   1.0000    -104.789036     -2851.4546
   2   1.0000    -104.785191     -2851.3500
   3   1.0000    -104.783172     -2851.2951
   4   1.0000     -32.075882      -872.8291
   5   1.0000     -27.553796      -749.7769
   6   1.0000     -27.553744      -749.7755
   7   1.0000     -27.553585      -749.7712
   8   1.0000     -20.603134      -560.6398
   9   1.0000     -11.418172      -310.7043
  10   1.0000     -11.285510      -307.0943
  11   1.0000     -11.273793      -306.7755
  12   1.0000     -11.269024      -306.6457
  13   1.0000     -11.252396      -306.1933
  14   1.0000     -11.252357      -306.1922
  15   1.0000     -11.238934      -305.8269
  16   1.0000     -11.236667      -305.7653
  17   1.0000     -10.515640      -286.1451
  18   1.0000     -10.511763      -286.0396
  19   1.0000     -10.509701      -285.9835
  20   1.0000      -7.981544      -217.1889
  21   1.0000      -7.980860      -217.1702
  22   1.0000      -7.980816      -217.1690
  23   1.0000      -7.977664      -217.0833
  24   1.0000      -7.976960      -217.0641
  25   1.0000      -7.976874      -217.0618
  26   1.0000      -7.975681      -217.0293
  27   1.0000      -7.974839      -217.0064
  28   1.0000      -7.974752      -217.0040
  29   1.0000      -4.150747      -112.9476
  30   1.0000      -2.672352       -72.7184
  31   1.0000      -2.672311       -72.7173
  32   1.0000      -2.671773       -72.7026
  33   1.0000      -1.440992       -39.2114
  34   1.0000      -1.137792       -30.9609
  35   1.0000      -1.093191       -29.7472
  36   1.0000      -1.047524       -28.5046
  37   1.0000      -1.035106       -28.1667
  38   1.0000      -1.031561       -28.0702
  39   1.0000      -1.025348       -27.9011
  40   1.0000      -1.005189       -27.3526
  41   1.0000      -0.967531       -26.3279
  42   1.0000      -0.903748       -24.5922
  43   1.0000      -0.821603       -22.3570
  44   1.0000      -0.739542       -20.1240
  45   1.0000      -0.706698       -19.2302
  46   1.0000      -0.693612       -18.8741
  47   1.0000      -0.682401       -18.5691
  48   1.0000      -0.662548       -18.0288
  49   1.0000      -0.628919       -17.1138
  50   1.0000      -0.621101       -16.9010
  51   1.0000      -0.605177       -16.4677
  52   1.0000      -0.597502       -16.2589
  53   1.0000      -0.583759       -15.8849
  54   1.0000      -0.574620       -15.6362
  55   1.0000      -0.561041       -15.2667
  56   1.0000      -0.557964       -15.1830
  57   1.0000      -0.547672       -14.9029
  58   1.0000      -0.543977       -14.8024
  59   1.0000      -0.532216       -14.4823
  60   1.0000      -0.520133       -14.1535
  61   1.0000      -0.502389       -13.6707
  62   1.0000      -0.498081       -13.5535
  63   1.0000      -0.481329       -13.0976
  64   1.0000      -0.478520       -13.0212
  65   1.0000      -0.450816       -12.2673
  66   1.0000      -0.447195       -12.1688
  67   1.0000      -0.444494       -12.0953
  68   1.0000      -0.428711       -11.6658
  69   1.0000      -0.425072       -11.5668
  70   1.0000      -0.410166       -11.1612
  71   1.0000      -0.365066        -9.9340
  72   0.0000       0.012095         0.3291
  73   0.0000       0.022559         0.6139
  74   0.0000       0.023595         0.6421
  75   0.0000       0.029933         0.8145
  76   0.0000       0.038486         1.0473

E(0)                                       ...  -3028.452468003
E(0)                                       ...  -3028.452468003
E(CORR)(strong-pairs)                      ...     -2.870246262
E(CORR)(weak-pairs)                        ...     -0.036091671
E(CORR)(corrected)                         ...     -2.906337933
E(TOT)                                     ...  -3031.358805936
E(CCSD(T))                                 ...  -3031.477641187
FINAL SINGLE POINT ENERGY     -3031.477641186640

DIPOLE MOMENT
-------------
                                X             Y             Z
Electronic contribution:     43.16710       5.12246       1.17321
Nuclear contribution   :    -46.86357      -6.32270      -1.75367
                        -----------------------------------------
Total Dipole Moment    :     -3.69646      -1.20024      -0.58046
                        -----------------------------------------
Magnitude (a.u.)       :      3.92955
Magnitude (Debye)      :      9.98812

Rotational constants in cm-1:     0.019050     0.010790     0.010154
Rotational constants in MHz :   571.115497   323.461710   304.417016

                             ****ORCA TERMINATED NORMALLY****
TOTAL RUN TIME: 0 days 17 hours 48 minutes 28 seconds 383 msec
