                         Program Version 4.1.2  - RELEASE  -
|  1> ! aug-cc-pVTZ aug-cc-pVTZ/C DLPNO-CCSD(T1) TightSCF NormalPNO UNO MiniPrint AutoAux
|  2> %pal nproc 10 end
|  3> %maxcore 20000
|  4> %mdci
|  5>      density none
|  6> end
|  7>
|  8> * xyz 0 6
|  9>  O     -0.27735200     -0.23470100     -0.77684000
| 10>  C     -1.15671800     -1.15280700     -0.61216700
| 11>  C     -2.81605400     -0.27910100      0.53815600
| 12>  C     -2.61195100      0.92569400     -0.07460300
| 13>  C     -3.24662200      1.26326700     -1.38849700
| 14> Fe      1.44828700      0.14120900     -0.01835800
| 15> Cl      2.00635100      2.06146600     -0.90422400
| 16>  C     -1.70553300      1.97512600      0.47343800
| 17> Cl      2.66294900     -1.58077600     -0.62093000
| 18> Cl      1.18870600      0.25385200      2.17179500
| 19>  H     -3.57088300     -0.92583400      0.09399200
| 20>  H     -2.24023000      2.93096700      0.54169100
| 21>  H     -1.28551200      1.73355300      1.44844500
| 22>  H     -0.87511700      2.13685100     -0.22784400
| 23>  H     -3.82788100      2.18795100     -1.28026400
| 24>  H     -2.47810600      1.47021600     -2.14513000
| 25>  H     -3.91604000      0.48097900     -1.75215400
| 26>  C     -2.54891800     -0.52086700      2.00820200
| 27>  H     -3.28595400      0.03073700      2.60513600
| 28>  H     -2.65763000     -1.57748300      2.26159500
| 29>  H     -1.55581700     -0.19660300      2.32538900
| 30>  C     -0.85751600     -2.26361100      0.36615300
| 31>  H     -1.72077100     -2.90566200      0.54858500
| 32>  H     -0.07235400     -2.86353900     -0.11517900
| 33>  H     -0.45032200     -1.89168600      1.30553000
| 34>  C     -1.88876000     -1.57755800     -1.86622500
| 35>  H     -1.19433900     -2.23897700     -2.40139500
| 36>  H     -2.79987100     -2.14122100     -1.65743500
| 37>  H     -2.09945500     -0.73214500     -2.51857400
| 38> *
| 39>
| 40>
| 41>                          ****END OF INPUT****

CARTESIAN COORDINATES (ANGSTROEM)
---------------------------------
  O     -0.277352   -0.234701   -0.776840
  C     -1.156718   -1.152807   -0.612167
  C     -2.816054   -0.279101    0.538156
  C     -2.611951    0.925694   -0.074603
  C     -3.246622    1.263267   -1.388497
  Fe     1.448287    0.141209   -0.018358
  Cl     2.006351    2.061466   -0.904224
  C     -1.705533    1.975126    0.473438
  Cl     2.662949   -1.580776   -0.620930
  Cl     1.188706    0.253852    2.171795
  H     -3.570883   -0.925834    0.093992
  H     -2.240230    2.930967    0.541691
  H     -1.285512    1.733553    1.448445
  H     -0.875117    2.136851   -0.227844
  H     -3.827881    2.187951   -1.280264
  H     -2.478106    1.470216   -2.145130
  H     -3.916040    0.480979   -1.752154
  C     -2.548918   -0.520867    2.008202
  H     -3.285954    0.030737    2.605136
  H     -2.657630   -1.577483    2.261595
  H     -1.555817   -0.196603    2.325389
  C     -0.857516   -2.263611    0.366153
  H     -1.720771   -2.905662    0.548585
  H     -0.072354   -2.863539   -0.115179
  H     -0.450322   -1.891686    1.305530
  C     -1.888760   -1.577558   -1.866225
  H     -1.194339   -2.238977   -2.401395
  H     -2.799871   -2.141221   -1.657435
  H     -2.099455   -0.732145   -2.518574

ORBITAL ENERGIES
----------------
                 SPIN UP ORBITALS
  NO   OCC          E(Eh)            E(eV)
   0   1.0000    -261.563696     -7117.5100
   1   1.0000    -104.786162     -2851.3764
   2   1.0000    -104.782003     -2851.2633
   3   1.0000    -104.780900     -2851.2333
   4   1.0000     -32.231530      -877.0645
   5   1.0000     -27.707757      -753.9664
   6   1.0000     -27.707020      -753.9464
   7   1.0000     -27.706833      -753.9413
   8   1.0000     -20.587581      -560.2166
   9   1.0000     -11.410120      -310.4851
  10   1.0000     -11.310044      -307.7619
  11   1.0000     -11.267962      -306.6168
  12   1.0000     -11.262441      -306.4666
  13   1.0000     -11.262370      -306.4647
  14   1.0000     -11.262192      -306.4598
  15   1.0000     -11.244579      -305.9805
  16   1.0000     -11.243795      -305.9592
  17   1.0000     -10.512841      -286.0689
  18   1.0000     -10.508666      -285.9553
  19   1.0000     -10.507514      -285.9240
  20   1.0000      -7.979705      -217.1388
  21   1.0000      -7.978886      -217.1165
  22   1.0000      -7.978857      -217.1157
  23   1.0000      -7.975522      -217.0250
  24   1.0000      -7.974766      -217.0044
  25   1.0000      -7.974705      -217.0028
  26   1.0000      -7.974323      -216.9924
  27   1.0000      -7.973629      -216.9735
  28   1.0000      -7.973564      -216.9717
  29   1.0000      -4.586674      -124.8098
  30   1.0000      -3.199578       -87.0649
  31   1.0000      -3.198357       -87.0317
  32   1.0000      -3.198103       -87.0248
  33   1.0000      -1.432251       -38.9735
  34   1.0000      -1.152648       -31.3651
  35   1.0000      -1.089967       -29.6595
  36   1.0000      -1.057958       -28.7885
  37   1.0000      -1.052091       -28.6288
  38   1.0000      -1.049213       -28.5505
  39   1.0000      -1.032730       -28.1020
  40   1.0000      -0.998654       -27.1747
  41   1.0000      -0.978131       -26.6163
  42   1.0000      -0.932072       -25.3630
  43   1.0000      -0.915824       -24.9208
  44   1.0000      -0.915761       -24.9191
  45   1.0000      -0.912799       -24.8385
  46   1.0000      -0.906003       -24.6536
  47   1.0000      -0.905283       -24.6340
  48   1.0000      -0.799132       -21.7455
  49   1.0000      -0.749976       -20.4079
  50   1.0000      -0.694527       -18.8990
  51   1.0000      -0.687932       -18.7196
  52   1.0000      -0.682241       -18.5647
  53   1.0000      -0.668440       -18.1892
  54   1.0000      -0.638289       -17.3687
  55   1.0000      -0.623318       -16.9613
  56   1.0000      -0.604495       -16.4492
  57   1.0000      -0.594761       -16.1843
  58   1.0000      -0.582019       -15.8375
  59   1.0000      -0.574687       -15.6380
  60   1.0000      -0.566546       -15.4165
  61   1.0000      -0.558772       -15.2050
  62   1.0000      -0.555346       -15.1117
  63   1.0000      -0.545030       -14.8310
  64   1.0000      -0.539380       -14.6773
  65   1.0000      -0.525431       -14.2977
  66   1.0000      -0.512267       -13.9395
  67   1.0000      -0.488870       -13.3028
  68   1.0000      -0.469596       -12.7784
  69   1.0000      -0.465470       -12.6661
  70   1.0000      -0.437569       -11.9069
  71   1.0000      -0.433319       -11.7912
  72   1.0000      -0.431456       -11.7405
  73   1.0000      -0.422707       -11.5024
  74   1.0000      -0.421372       -11.4661
  75   1.0000      -0.420405       -11.4398
  76   1.0000      -0.374492       -10.1904
  77   0.0000       0.011190         0.3045
  78   0.0000       0.021398         0.5823
  79   0.0000       0.022942         0.6243
  80   0.0000       0.029297         0.7972
  81   0.0000       0.037177         1.0116

                 SPIN DOWN ORBITALS
  NO   OCC          E(Eh)            E(eV)
   0   1.0000    -261.560136     -7117.4131
   1   1.0000    -104.784740     -2851.3377
   2   1.0000    -104.780496     -2851.2222
   3   1.0000    -104.779419     -2851.1929
   4   1.0000     -32.069478      -872.6549
   5   1.0000     -27.547427      -749.6036
   6   1.0000     -27.547358      -749.6017
   7   1.0000     -27.547105      -749.5948
   8   1.0000     -20.583378      -560.1022
   9   1.0000     -11.410047      -310.4832
  10   1.0000     -11.309848      -307.7566
  11   1.0000     -11.267849      -306.6138
  12   1.0000     -11.262425      -306.4662
  13   1.0000     -11.262407      -306.4657
  14   1.0000     -11.262218      -306.4605
  15   1.0000     -11.244623      -305.9817
  16   1.0000     -11.243790      -305.9591
  17   1.0000     -10.511316      -286.0274
  18   1.0000     -10.507056      -285.9115
  19   1.0000     -10.505936      -285.8810
  20   1.0000      -7.977204      -217.0708
  21   1.0000      -7.976591      -217.0541
  22   1.0000      -7.976536      -217.0526
  23   1.0000      -7.972968      -216.9555
  24   1.0000      -7.972270      -216.9365
  25   1.0000      -7.972185      -216.9342
  26   1.0000      -7.971910      -216.9267
  27   1.0000      -7.971122      -216.9053
  28   1.0000      -7.971033      -216.9028
  29   1.0000      -4.144407      -112.7751
  30   1.0000      -2.666079       -72.5477
  31   1.0000      -2.666043       -72.5467
  32   1.0000      -2.665336       -72.5275
  33   1.0000      -1.421639       -38.6848
  34   1.0000      -1.151987       -31.3472
  35   1.0000      -1.087237       -29.5852
  36   1.0000      -1.043105       -28.3843
  37   1.0000      -1.032821       -28.1045
  38   1.0000      -1.030194       -28.0330
  39   1.0000      -1.027438       -27.9580
  40   1.0000      -0.997919       -27.1548
  41   1.0000      -0.978006       -26.6129
  42   1.0000      -0.913407       -24.8551
  43   1.0000      -0.812828       -22.1182
  44   1.0000      -0.750142       -20.4124
  45   1.0000      -0.697318       -18.9750
  46   1.0000      -0.687357       -18.7039
  47   1.0000      -0.681331       -18.5400
  48   1.0000      -0.668103       -18.1800
  49   1.0000      -0.638205       -17.3665
  50   1.0000      -0.622811       -16.9476
  51   1.0000      -0.603880       -16.4324
  52   1.0000      -0.594720       -16.1832
  53   1.0000      -0.581837       -15.8326
  54   1.0000      -0.573484       -15.6053
  55   1.0000      -0.566470       -15.4144
  56   1.0000      -0.558629       -15.2011
  57   1.0000      -0.555060       -15.1039
  58   1.0000      -0.543267       -14.7830
  59   1.0000      -0.537482       -14.6256
  60   1.0000      -0.515275       -14.0213
  61   1.0000      -0.511608       -13.9216
  62   1.0000      -0.488660       -13.2971
  63   1.0000      -0.476184       -12.9576
  64   1.0000      -0.473830       -12.8936
  65   1.0000      -0.446410       -12.1474
  66   1.0000      -0.443082       -12.0569
  67   1.0000      -0.440531       -11.9875
  68   1.0000      -0.425673       -11.5832
  69   1.0000      -0.420884       -11.4528
  70   1.0000      -0.406629       -11.0649
  71   1.0000      -0.372596       -10.1389
  72   0.0000       0.011178         0.3042
  73   0.0000       0.021373         0.5816
  74   0.0000       0.022929         0.6239
  75   0.0000       0.029110         0.7921
  76   0.0000       0.036626         0.9966

E(0)                                       ...  -3028.438967192
E(0)                                       ...  -3028.438967192
E(CORR)(strong-pairs)                      ...     -2.873526613
E(CORR)(weak-pairs)                        ...     -0.036096003
E(CORR)(corrected)                         ...     -2.909622616
E(TOT)                                     ...  -3031.348589809
E(CCSD(T))                                 ...  -3031.468414095
FINAL SINGLE POINT ENERGY     -3031.468414094988

DIPOLE MOMENT
-------------
                                X             Y             Z
Electronic contribution:     42.11214       5.02481       1.24070
Nuclear contribution   :    -46.20761      -5.87439      -1.76783
                        -----------------------------------------
Total Dipole Moment    :     -4.09548      -0.84958      -0.52713
                        -----------------------------------------
Magnitude (a.u.)       :      4.21576
Magnitude (Debye)      :     10.71560

Rotational constants in cm-1:     0.019148     0.011053     0.010390
Rotational constants in MHz :   574.043540   331.372164   311.494278

                             ****ORCA TERMINATED NORMALLY****
TOTAL RUN TIME: 0 days 19 hours 1 minutes 10 seconds 787 msec
