                         Program Version 4.1.2  - RELEASE  -
|  1> ! aug-cc-pVTZ aug-cc-pVTZ/C DLPNO-CCSD(T1) TightSCF NormalPNO UNO MiniPrint AutoAux
|  2> %pal nproc 10 end
|  3> %maxcore 20000
|  4> %mdci
|  5>      density none
|  6> end
|  7>
|  8> * xyz 0 6
|  9>  O      0.22291400      0.34612800     -0.85477100
| 10>  C      1.01278500      1.30407600     -0.66643800
| 11>  C      3.06116300      0.10619500      0.51328000
| 12>  C      2.60748500     -0.95796700     -0.18160100
| 13>  C      3.04608200     -1.22084900     -1.59584100
| 14> Fe     -1.47117100     -0.15268900      0.01633900
| 15> Cl     -2.07390000     -1.99139100     -0.97717500
| 16>  C      1.68116700     -1.99631000      0.37793700
| 17> Cl     -2.68644200      1.61365100     -0.42539000
| 18> Cl     -1.10006800     -0.37390900      2.16964500
| 19>  H      3.78659500      0.75204900      0.01814700
| 20>  H      2.20510300     -2.95951400      0.44393600
| 21>  H      1.29268000     -1.75359100      1.36639800
| 22>  H      0.83182600     -2.15759600     -0.29749600
| 23>  H      3.53111700     -2.20358800     -1.65895100
| 24>  H      2.18050400     -1.26151700     -2.27044500
| 25>  H      3.75425100     -0.47276600     -1.96304100
| 26>  C      2.87843400      0.35339200      1.98764500
| 27>  H      3.68721800     -0.13008800      2.55236900
| 28>  H      2.92668200      1.42055200      2.22525900
| 29>  H      1.93263300     -0.03561800      2.37296600
| 30>  C      0.84560600      2.21863700      0.50661400
| 31>  H      1.73289100      2.82736000      0.68355700
| 32>  H      0.00925100      2.88621100      0.24991800
| 33>  H      0.56118700      1.67661900      1.40855700
| 34>  C      1.81853100      1.78928400     -1.83411800
| 35>  H      1.21167000      2.57290800     -2.31157800
| 36>  H      2.76301100      2.24082200     -1.52777500
| 37>  H      1.97997500      0.99792800     -2.56369300
| 38> *
| 39>
| 40>
| 41>                          ****END OF INPUT****

CARTESIAN COORDINATES (ANGSTROEM)
---------------------------------
  O      0.222914    0.346128   -0.854771
  C      1.012785    1.304076   -0.666438
  C      3.061163    0.106195    0.513280
  C      2.607485   -0.957967   -0.181601
  C      3.046082   -1.220849   -1.595841
  Fe    -1.471171   -0.152689    0.016339
  Cl    -2.073900   -1.991391   -0.977175
  C      1.681167   -1.996310    0.377937
  Cl    -2.686442    1.613651   -0.425390
  Cl    -1.100068   -0.373909    2.169645
  H      3.786595    0.752049    0.018147
  H      2.205103   -2.959514    0.443936
  H      1.292680   -1.753591    1.366398
  H      0.831826   -2.157596   -0.297496
  H      3.531117   -2.203588   -1.658951
  H      2.180504   -1.261517   -2.270445
  H      3.754251   -0.472766   -1.963041
  C      2.878434    0.353392    1.987645
  H      3.687218   -0.130088    2.552369
  H      2.926682    1.420552    2.225259
  H      1.932633   -0.035618    2.372966
  C      0.845606    2.218637    0.506614
  H      1.732891    2.827360    0.683557
  H      0.009251    2.886211    0.249918
  H      0.561187    1.676619    1.408557
  C      1.818531    1.789284   -1.834118
  H      1.211670    2.572908   -2.311578
  H      2.763011    2.240822   -1.527775
  H      1.979975    0.997928   -2.563693

ORBITAL ENERGIES
----------------
                 SPIN UP ORBITALS
  NO   OCC          E(Eh)            E(eV)
   0   1.0000    -261.575979     -7117.8443
   1   1.0000    -104.793938     -2851.5880
   2   1.0000    -104.790763     -2851.5016
   3   1.0000    -104.788881     -2851.4504
   4   1.0000     -32.243679      -877.3951
   5   1.0000     -27.720155      -754.3038
   6   1.0000     -27.719022      -754.2729
   7   1.0000     -27.718833      -754.2678
   8   1.0000     -20.619446      -561.0836
   9   1.0000     -11.421761      -310.8019
  10   1.0000     -11.277698      -306.8818
  11   1.0000     -11.271944      -306.7252
  12   1.0000     -11.267564      -306.6060
  13   1.0000     -11.243781      -305.9588
  14   1.0000     -11.242886      -305.9345
  15   1.0000     -11.237164      -305.7788
  16   1.0000     -11.229240      -305.5631
  17   1.0000     -10.520655      -286.2816
  18   1.0000     -10.517454      -286.1945
  19   1.0000     -10.515522      -286.1419
  20   1.0000      -7.987486      -217.3505
  21   1.0000      -7.986734      -217.3301
  22   1.0000      -7.986681      -217.3286
  23   1.0000      -7.984337      -217.2649
  24   1.0000      -7.983548      -217.2434
  25   1.0000      -7.983493      -217.2419
  26   1.0000      -7.982309      -217.2097
  27   1.0000      -7.981650      -217.1917
  28   1.0000      -7.981604      -217.1905
  29   1.0000      -4.598529      -125.1323
  30   1.0000      -3.211659       -87.3937
  31   1.0000      -3.209930       -87.3466
  32   1.0000      -3.209788       -87.3428
  33   1.0000      -1.464053       -39.8389
  34   1.0000      -1.126582       -30.6559
  35   1.0000      -1.101127       -29.9632
  36   1.0000      -1.067063       -29.0363
  37   1.0000      -1.061286       -28.8791
  38   1.0000      -1.058471       -28.8025
  39   1.0000      -1.021951       -27.8087
  40   1.0000      -1.009342       -27.4656
  41   1.0000      -0.958543       -26.0833
  42   1.0000      -0.942769       -25.6540
  43   1.0000      -0.927430       -25.2367
  44   1.0000      -0.927320       -25.2336
  45   1.0000      -0.916632       -24.9428
  46   1.0000      -0.915988       -24.9253
  47   1.0000      -0.896479       -24.3944
  48   1.0000      -0.813849       -22.1460
  49   1.0000      -0.729455       -19.8495
  50   1.0000      -0.712297       -19.3826
  51   1.0000      -0.702430       -19.1141
  52   1.0000      -0.685254       -18.6467
  53   1.0000      -0.655173       -17.8282
  54   1.0000      -0.621623       -16.9152
  55   1.0000      -0.621276       -16.9058
  56   1.0000      -0.604349       -16.4452
  57   1.0000      -0.599576       -16.3153
  58   1.0000      -0.585968       -15.9450
  59   1.0000      -0.578777       -15.7493
  60   1.0000      -0.560832       -15.2610
  61   1.0000      -0.551207       -14.9991
  62   1.0000      -0.547841       -14.9075
  63   1.0000      -0.540334       -14.7032
  64   1.0000      -0.536332       -14.5943
  65   1.0000      -0.526053       -14.3146
  66   1.0000      -0.503487       -13.7006
  67   1.0000      -0.493043       -13.4164
  68   1.0000      -0.476992       -12.9796
  69   1.0000      -0.476411       -12.9638
  70   1.0000      -0.446868       -12.1599
  71   1.0000      -0.440760       -11.9937
  72   1.0000      -0.438945       -11.9443
  73   1.0000      -0.430301       -11.7091
  74   1.0000      -0.429326       -11.6826
  75   1.0000      -0.428082       -11.6487
  76   1.0000      -0.359359        -9.7786
  77   0.0000       0.012676         0.3449
  78   0.0000       0.023630         0.6430
  79   0.0000       0.024300         0.6612
  80   0.0000       0.030650         0.8340
  81   0.0000       0.039341         1.0705

                 SPIN DOWN ORBITALS
  NO   OCC          E(Eh)            E(eV)
   0   1.0000    -261.572400     -7117.7469
   1   1.0000    -104.792453     -2851.5476
   2   1.0000    -104.789208     -2851.4593
   3   1.0000    -104.787320     -2851.4079
   4   1.0000     -32.081689      -872.9872
   5   1.0000     -27.559614      -749.9352
   6   1.0000     -27.559531      -749.9330
   7   1.0000     -27.559427      -749.9301
   8   1.0000     -20.615951      -560.9885
   9   1.0000     -11.421682      -310.7998
  10   1.0000     -11.277590      -306.8788
  11   1.0000     -11.271937      -306.7250
  12   1.0000     -11.267596      -306.6069
  13   1.0000     -11.243717      -305.9571
  14   1.0000     -11.242881      -305.9344
  15   1.0000     -11.237170      -305.7789
  16   1.0000     -11.229251      -305.5634
  17   1.0000     -10.519069      -286.2384
  18   1.0000     -10.515794      -286.1493
  19   1.0000     -10.513864      -286.0968
  20   1.0000      -7.984989      -217.2826
  21   1.0000      -7.984252      -217.2625
  22   1.0000      -7.984212      -217.2615
  23   1.0000      -7.981670      -217.1923
  24   1.0000      -7.980992      -217.1738
  25   1.0000      -7.980900      -217.1713
  26   1.0000      -7.979856      -217.1429
  27   1.0000      -7.978958      -217.1185
  28   1.0000      -7.978877      -217.1163
  29   1.0000      -4.156444      -113.1026
  30   1.0000      -2.677991       -72.8718
  31   1.0000      -2.677964       -72.8711
  32   1.0000      -2.677498       -72.8584
  33   1.0000      -1.455475       -39.6055
  34   1.0000      -1.126269       -30.6473
  35   1.0000      -1.098816       -29.9003
  36   1.0000      -1.051456       -28.6116
  37   1.0000      -1.038905       -28.2700
  38   1.0000      -1.035756       -28.1844
  39   1.0000      -1.021217       -27.7887
  40   1.0000      -1.008862       -27.4525
  41   1.0000      -0.958418       -26.0799
  42   1.0000      -0.896618       -24.3982
  43   1.0000      -0.826548       -22.4915
  44   1.0000      -0.729524       -19.8514
  45   1.0000      -0.714282       -19.4366
  46   1.0000      -0.701589       -19.0912
  47   1.0000      -0.684618       -18.6294
  48   1.0000      -0.655107       -17.8264
  49   1.0000      -0.621369       -16.9083
  50   1.0000      -0.620917       -16.8960
  51   1.0000      -0.604103       -16.4385
  52   1.0000      -0.599490       -16.3129
  53   1.0000      -0.585709       -15.9380
  54   1.0000      -0.577496       -15.7145
  55   1.0000      -0.559953       -15.2371
  56   1.0000      -0.551030       -14.9943
  57   1.0000      -0.545958       -14.8563
  58   1.0000      -0.540274       -14.7016
  59   1.0000      -0.527509       -14.3543
  60   1.0000      -0.523298       -14.2397
  61   1.0000      -0.505159       -13.7461
  62   1.0000      -0.492837       -13.4108
  63   1.0000      -0.485392       -13.2082
  64   1.0000      -0.482945       -13.1416
  65   1.0000      -0.454069       -12.3558
  66   1.0000      -0.451012       -12.2727
  67   1.0000      -0.448059       -12.1923
  68   1.0000      -0.431688       -11.7468
  69   1.0000      -0.429408       -11.6848
  70   1.0000      -0.413516       -11.2523
  71   1.0000      -0.358771        -9.7627
  72   0.0000       0.012660         0.3445
  73   0.0000       0.023607         0.6424
  74   0.0000       0.024264         0.6602
  75   0.0000       0.030583         0.8322
  76   0.0000       0.039236         1.0677

E(0)                                       ...  -3028.464161329
E(0)                                       ...  -3028.464161329
E(CORR)(strong-pairs)                      ...     -2.867896631
E(CORR)(weak-pairs)                        ...     -0.035639018
E(CORR)(corrected)                         ...     -2.903535649
E(TOT)                                     ...  -3031.367696977
E(CCSD(T))                                 ...  -3031.485770424
FINAL SINGLE POINT ENERGY     -3031.485770423947

DIPOLE MOMENT
-------------
                                X             Y             Z
Electronic contribution:    -43.31996      -4.44461       1.72168
Nuclear contribution   :     46.63778       5.84397      -2.35611
                        -----------------------------------------
Total Dipole Moment    :      3.31782       1.39936      -0.63443
                        -----------------------------------------
Magnitude (a.u.)       :      3.65631
Magnitude (Debye)      :      9.29360

Rotational constants in cm-1:     0.018847     0.010808     0.010180
Rotational constants in MHz :   565.009188   324.018176   305.175129

                             ****ORCA TERMINATED NORMALLY****
TOTAL RUN TIME: 0 days 17 hours 19 minutes 37 seconds 635 msec
