                         Program Version 4.1.2  - RELEASE  -
|  1> ! aug-cc-pVTZ aug-cc-pVTZ/C DLPNO-CCSD(T1) TightSCF NormalPNO UNO MiniPrint AutoAux
|  2> %pal nproc 10 end
|  3> %maxcore 20000
|  4> %mdci
|  5>      density none
|  6> end
|  7>
|  8> * xyz 0 6
|  9>  O      0.20012000      0.42760800     -0.85713300
| 10>  C      0.92761900      1.41953600     -0.63928500
| 11>  C      3.18117800      0.00697700      0.51663200
| 12>  C      2.62538900     -0.94396200     -0.25762200
| 13>  C      3.00461200     -1.09309600     -1.70757800
| 14> Fe     -1.47571800     -0.17018700      0.02704200
| 15> Cl     -2.07620500     -1.94667200     -1.06831600
| 16>  C      1.67732700     -1.99807300      0.23884100
| 17> Cl     -2.71707900      1.60360300     -0.29530200
| 18> Cl     -1.06365200     -0.49840100      2.15450400
| 19>  H      3.91497200      0.66551500      0.04913100
| 20>  H      2.17680900     -2.97655500      0.22517300
| 21>  H      1.31298700     -1.82190900      1.25064000
| 22>  H      0.81264500     -2.09135600     -0.42892100
| 23>  H      3.46197000     -2.07642900     -1.87934800
| 24>  H      2.11529800     -1.05165300     -2.34991700
| 25>  H      3.71749000     -0.33004300     -2.03438900
| 26>  C      3.01315600      0.18654100      2.00022900
| 27>  H      3.85916200     -0.26105100      2.53990100
| 28>  H      2.99769800      1.24759400      2.27456800
| 29>  H      2.09858100     -0.27265300      2.38389200
| 30>  C      0.79960200      2.21823300      0.61779600
| 31>  H      1.67537000      2.84449600      0.79348400
| 32>  H     -0.07827600      2.86887300      0.48957200
| 33>  H      0.60408500      1.57656300      1.47806400
| 34>  C      1.75006300      1.96827700     -1.76197900
| 35>  H      1.22102600      2.85822700     -2.13345500
| 36>  H      2.73352000      2.29261800     -1.41630200
| 37>  H      1.83859900      1.25015900     -2.57541100
| 38> *
| 39>
| 40>
| 41>                          ****END OF INPUT****

CARTESIAN COORDINATES (ANGSTROEM)
---------------------------------
  O      0.200120    0.427608   -0.857133
  C      0.927619    1.419536   -0.639285
  C      3.181178    0.006977    0.516632
  C      2.625389   -0.943962   -0.257622
  C      3.004612   -1.093096   -1.707578
  Fe    -1.475718   -0.170187    0.027042
  Cl    -2.076205   -1.946672   -1.068316
  C      1.677327   -1.998073    0.238841
  Cl    -2.717079    1.603603   -0.295302
  Cl    -1.063652   -0.498401    2.154504
  H      3.914972    0.665515    0.049131
  H      2.176809   -2.976555    0.225173
  H      1.312987   -1.821909    1.250640
  H      0.812645   -2.091356   -0.428921
  H      3.461970   -2.076429   -1.879348
  H      2.115298   -1.051653   -2.349917
  H      3.717490   -0.330043   -2.034389
  C      3.013156    0.186541    2.000229
  H      3.859162   -0.261051    2.539901
  H      2.997698    1.247594    2.274568
  H      2.098581   -0.272653    2.383892
  C      0.799602    2.218233    0.617796
  H      1.675370    2.844496    0.793484
  H     -0.078276    2.868873    0.489572
  H      0.604085    1.576563    1.478064
  C      1.750063    1.968277   -1.761979
  H      1.221026    2.858227   -2.133455
  H      2.733520    2.292618   -1.416302
  H      1.838599    1.250159   -2.575411

ORBITAL ENERGIES
----------------
                 SPIN UP ORBITALS
  NO   OCC          E(Eh)            E(eV)
   0   1.0000    -261.579290     -7117.9344
   1   1.0000    -104.795915     -2851.6418
   2   1.0000    -104.793008     -2851.5627
   3   1.0000    -104.791173     -2851.5128
   4   1.0000     -32.246933      -877.4837
   5   1.0000     -27.723484      -754.3944
   6   1.0000     -27.722233      -754.3603
   7   1.0000     -27.722043      -754.3551
   8   1.0000     -20.627575      -561.3049
   9   1.0000     -11.422476      -310.8214
  10   1.0000     -11.279892      -306.9415
  11   1.0000     -11.273882      -306.7779
  12   1.0000     -11.258021      -306.3463
  13   1.0000     -11.239037      -305.8298
  14   1.0000     -11.237887      -305.7984
  15   1.0000     -11.234688      -305.7114
  16   1.0000     -11.225420      -305.4592
  17   1.0000     -10.522650      -286.3359
  18   1.0000     -10.519716      -286.2560
  19   1.0000     -10.517828      -286.2046
  20   1.0000      -7.989469      -217.4045
  21   1.0000      -7.988741      -217.3847
  22   1.0000      -7.988681      -217.3831
  23   1.0000      -7.986612      -217.3268
  24   1.0000      -7.985805      -217.3048
  25   1.0000      -7.985751      -217.3033
  26   1.0000      -7.984606      -217.2722
  27   1.0000      -7.983957      -217.2545
  28   1.0000      -7.983917      -217.2534
  29   1.0000      -4.601671      -125.2178
  30   1.0000      -3.214841       -87.4803
  31   1.0000      -3.212994       -87.4300
  32   1.0000      -3.212892       -87.4272
  33   1.0000      -1.471683       -40.0465
  34   1.0000      -1.119001       -30.4496
  35   1.0000      -1.103951       -30.0400
  36   1.0000      -1.069512       -29.1029
  37   1.0000      -1.063725       -28.9454
  38   1.0000      -1.061089       -28.8737
  39   1.0000      -1.020791       -27.7771
  40   1.0000      -1.008751       -27.4495
  41   1.0000      -0.953560       -25.9477
  42   1.0000      -0.945179       -25.7196
  43   1.0000      -0.930501       -25.3202
  44   1.0000      -0.930363       -25.3165
  45   1.0000      -0.919391       -25.0179
  46   1.0000      -0.918783       -25.0013
  47   1.0000      -0.891185       -24.2504
  48   1.0000      -0.817627       -22.2488
  49   1.0000      -0.723661       -19.6918
  50   1.0000      -0.716467       -19.4961
  51   1.0000      -0.706550       -19.2262
  52   1.0000      -0.685375       -18.6500
  53   1.0000      -0.649695       -17.6791
  54   1.0000      -0.621821       -16.9206
  55   1.0000      -0.616296       -16.7703
  56   1.0000      -0.603569       -16.4239
  57   1.0000      -0.600005       -16.3270
  58   1.0000      -0.586643       -15.9634
  59   1.0000      -0.580156       -15.7868
  60   1.0000      -0.561168       -15.2702
  61   1.0000      -0.548077       -14.9139
  62   1.0000      -0.547353       -14.8942
  63   1.0000      -0.537369       -14.6226
  64   1.0000      -0.535749       -14.5785
  65   1.0000      -0.522498       -14.2179
  66   1.0000      -0.506732       -13.7889
  67   1.0000      -0.488064       -13.2809
  68   1.0000      -0.479147       -13.0382
  69   1.0000      -0.478331       -13.0161
  70   1.0000      -0.449236       -12.2243
  71   1.0000      -0.442740       -12.0476
  72   1.0000      -0.440966       -11.9993
  73   1.0000      -0.432389       -11.7659
  74   1.0000      -0.431316       -11.7367
  75   1.0000      -0.430153       -11.7051
  76   1.0000      -0.354996        -9.6599
  77   0.0000       0.012767         0.3474
  78   0.0000       0.023966         0.6521
  79   0.0000       0.024862         0.6765
  80   0.0000       0.030915         0.8413
  81   0.0000       0.039562         1.0765

                 SPIN DOWN ORBITALS
  NO   OCC          E(Eh)            E(eV)
   0   1.0000    -261.575703     -7117.8368
   1   1.0000    -104.794409     -2851.6008
   2   1.0000    -104.791442     -2851.5201
   3   1.0000    -104.789591     -2851.4697
   4   1.0000     -32.084970      -873.0764
   5   1.0000     -27.562931      -750.0255
   6   1.0000     -27.562785      -750.0215
   7   1.0000     -27.562716      -750.0196
   8   1.0000     -20.624280      -561.2152
   9   1.0000     -11.422406      -310.8195
  10   1.0000     -11.279790      -306.9387
  11   1.0000     -11.273878      -306.7778
  12   1.0000     -11.258073      -306.3477
  13   1.0000     -11.238968      -305.8279
  14   1.0000     -11.237879      -305.7982
  15   1.0000     -11.234694      -305.7116
  16   1.0000     -11.225427      -305.4594
  17   1.0000     -10.521044      -286.2921
  18   1.0000     -10.518044      -286.2105
  19   1.0000     -10.516149      -286.1590
  20   1.0000      -7.986976      -217.3367
  21   1.0000      -7.986197      -217.3155
  22   1.0000      -7.986160      -217.3144
  23   1.0000      -7.983905      -217.2531
  24   1.0000      -7.983243      -217.2351
  25   1.0000      -7.983147      -217.2325
  26   1.0000      -7.982148      -217.2053
  27   1.0000      -7.981217      -217.1800
  28   1.0000      -7.981138      -217.1778
  29   1.0000      -4.159664      -113.1902
  30   1.0000      -2.681205       -72.9593
  31   1.0000      -2.681139       -72.9575
  32   1.0000      -2.680743       -72.9467
  33   1.0000      -1.463681       -39.8288
  34   1.0000      -1.118705       -30.4415
  35   1.0000      -1.101818       -29.9820
  36   1.0000      -1.053708       -28.6729
  37   1.0000      -1.041071       -28.3290
  38   1.0000      -1.038085       -28.2477
  39   1.0000      -1.019805       -27.7503
  40   1.0000      -1.008545       -27.4439
  41   1.0000      -0.953372       -25.9426
  42   1.0000      -0.891262       -24.2525
  43   1.0000      -0.829610       -22.5748
  44   1.0000      -0.723775       -19.6949
  45   1.0000      -0.717946       -19.5363
  46   1.0000      -0.705823       -19.2064
  47   1.0000      -0.684836       -18.6353
  48   1.0000      -0.649653       -17.6779
  49   1.0000      -0.621242       -16.9049
  50   1.0000      -0.616210       -16.7679
  51   1.0000      -0.603441       -16.4205
  52   1.0000      -0.599925       -16.3248
  53   1.0000      -0.586374       -15.9560
  54   1.0000      -0.578843       -15.7511
  55   1.0000      -0.560220       -15.2444
  56   1.0000      -0.547322       -14.8934
  57   1.0000      -0.545351       -14.8398
  58   1.0000      -0.535888       -14.5822
  59   1.0000      -0.526982       -14.3399
  60   1.0000      -0.522148       -14.2084
  61   1.0000      -0.508443       -13.8354
  62   1.0000      -0.488617       -13.2959
  63   1.0000      -0.486705       -13.2439
  64   1.0000      -0.485104       -13.2004
  65   1.0000      -0.456063       -12.4101
  66   1.0000      -0.453150       -12.3308
  67   1.0000      -0.450000       -12.2451
  68   1.0000      -0.433388       -11.7931
  69   1.0000      -0.431709       -11.7474
  70   1.0000      -0.415332       -11.3017
  71   1.0000      -0.354629        -9.6500
  72   0.0000       0.012751         0.3470
  73   0.0000       0.023942         0.6515
  74   0.0000       0.024821         0.6754
  75   0.0000       0.030861         0.8398
  76   0.0000       0.039483         1.0744

E(0)                                       ...  -3028.472280772
E(0)                                       ...  -3028.472280772
E(CORR)(strong-pairs)                      ...     -2.865515523
E(CORR)(weak-pairs)                        ...     -0.035193419
E(CORR)(corrected)                         ...     -2.900708942
E(TOT)                                     ...  -3031.372989713
E(CCSD(T))                                 ...  -3031.490561203
FINAL SINGLE POINT ENERGY     -3031.490561202927

DIPOLE MOMENT
-------------
                                X             Y             Z
Electronic contribution:    -43.63797      -4.73287       1.88538
Nuclear contribution   :     46.72200       6.34400      -2.48762
                        -----------------------------------------
Total Dipole Moment    :      3.08403       1.61113      -0.60224
                        -----------------------------------------
Magnitude (a.u.)       :      3.53124
Magnitude (Debye)      :      8.97571

Rotational constants in cm-1:     0.018652     0.010669     0.010051
Rotational constants in MHz :   559.174893   319.854999   301.328981

                             ****ORCA TERMINATED NORMALLY****
TOTAL RUN TIME: 0 days 17 hours 48 minutes 11 seconds 965 msec
