                         Program Version 4.1.2  - RELEASE  -
|  1> ! aug-cc-pVTZ aug-cc-pVTZ/C DLPNO-CCSD(T1) TightSCF NormalPNO UNO MiniPrint AutoAux
|  2> %pal nproc 10 end
|  3> %maxcore 20000
|  4> %mdci
|  5>      density none
|  6> end
|  7>
|  8> * xyz 0 6
|  9>  O     -0.32304800     -0.17208700     -0.50411300
| 10>  C     -1.16633800     -1.13550600     -0.31400700
| 11>  C     -2.67463000     -0.30894700      0.80150100
| 12>  C     -2.93718800      0.73109000     -0.06753500
| 13>  C     -3.94911100      0.61118100     -1.16064000
| 14> Fe      1.50396800      0.17647100     -0.08214900
| 15> Cl      1.83484700      2.15208000     -0.97081600
| 16>  C     -2.17230200      1.99992900     -0.00102500
| 17> Cl      2.56661900     -1.50634300     -1.01051900
| 18> Cl      1.71863600      0.19180300      2.11267500
| 19>  H     -3.35694100     -1.15656100      0.74400400
| 20>  H     -2.62627600      2.79436600     -0.59770400
| 21>  H     -2.01160100      2.34670000      1.02329500
| 22>  H     -1.17035200      1.78822200     -0.41611900
| 23>  H     -4.76339300      1.31943700     -0.95166800
| 24>  H     -3.52787600      0.91021200     -2.12871300
| 25>  H     -4.37950100     -0.38883400     -1.24019200
| 26>  C     -2.05063900     -0.04816300      2.15917700
| 27>  H     -2.66455400      0.66740300      2.71878600
| 28>  H     -1.99689000     -0.96416200      2.74971200
| 29>  H     -1.04143500      0.36386300      2.08419200
| 30>  C     -0.76072700     -2.22797200      0.66245100
| 31>  H     -1.59374500     -2.88234700      0.92922600
| 32>  H     -0.00480000     -2.82453800      0.13451900
| 33>  H     -0.28943900     -1.82537900      1.55799600
| 34>  C     -1.83108000     -1.65473600     -1.57514800
| 35>  H     -1.09149000     -2.29905300     -2.06656100
| 36>  H     -2.72093400     -2.25429400     -1.36789400
| 37>  H     -2.06922200     -0.84603200     -2.26551600
| 38> *
| 39>
| 40>
| 41>                          ****END OF INPUT****

CARTESIAN COORDINATES (ANGSTROEM)
---------------------------------
  O     -0.323048   -0.172087   -0.504113
  C     -1.166338   -1.135506   -0.314007
  C     -2.674630   -0.308947    0.801501
  C     -2.937188    0.731090   -0.067535
  C     -3.949111    0.611181   -1.160640
  Fe     1.503968    0.176471   -0.082149
  Cl     1.834847    2.152080   -0.970816
  C     -2.172302    1.999929   -0.001025
  Cl     2.566619   -1.506343   -1.010519
  Cl     1.718636    0.191803    2.112675
  H     -3.356941   -1.156561    0.744004
  H     -2.626276    2.794366   -0.597704
  H     -2.011601    2.346700    1.023295
  H     -1.170352    1.788222   -0.416119
  H     -4.763393    1.319437   -0.951668
  H     -3.527876    0.910212   -2.128713
  H     -4.379501   -0.388834   -1.240192
  C     -2.050639   -0.048163    2.159177
  H     -2.664554    0.667403    2.718786
  H     -1.996890   -0.964162    2.749712
  H     -1.041435    0.363863    2.084192
  C     -0.760727   -2.227972    0.662451
  H     -1.593745   -2.882347    0.929226
  H     -0.004800   -2.824538    0.134519
  H     -0.289439   -1.825379    1.557996
  C     -1.831080   -1.654736   -1.575148
  H     -1.091490   -2.299053   -2.066561
  H     -2.720934   -2.254294   -1.367894
  H     -2.069222   -0.846032   -2.265516

ORBITAL ENERGIES
----------------
                 SPIN UP ORBITALS
  NO   OCC          E(Eh)            E(eV)
   0   1.0000    -261.556692     -7117.3194
   1   1.0000    -104.779683     -2851.2001
   2   1.0000    -104.776966     -2851.1262
   3   1.0000    -104.776410     -2851.1111
   4   1.0000     -32.224546      -876.8745
   5   1.0000     -27.700734      -753.7753
   6   1.0000     -27.700053      -753.7568
   7   1.0000     -27.699896      -753.7525
   8   1.0000     -20.574348      -559.8565
   9   1.0000     -11.397467      -310.1408
  10   1.0000     -11.334757      -308.4344
  11   1.0000     -11.277266      -306.8700
  12   1.0000     -11.272188      -306.7318
  13   1.0000     -11.261950      -306.4532
  14   1.0000     -11.256326      -306.3002
  15   1.0000     -11.255221      -306.2701
  16   1.0000     -11.246529      -306.0336
  17   1.0000     -10.506323      -285.8916
  18   1.0000     -10.503599      -285.8175
  19   1.0000     -10.503005      -285.8013
  20   1.0000      -7.973180      -216.9613
  21   1.0000      -7.972374      -216.9393
  22   1.0000      -7.972347      -216.9386
  23   1.0000      -7.970459      -216.8872
  24   1.0000      -7.969821      -216.8699
  25   1.0000      -7.969699      -216.8665
  26   1.0000      -7.969620      -216.8644
  27   1.0000      -7.969127      -216.8510
  28   1.0000      -7.969039      -216.8486
  29   1.0000      -4.579803      -124.6228
  30   1.0000      -3.192693       -86.8776
  31   1.0000      -3.191574       -86.8471
  32   1.0000      -3.191240       -86.8381
  33   1.0000      -1.417145       -38.5625
  34   1.0000      -1.168080       -31.7851
  35   1.0000      -1.083961       -29.4961
  36   1.0000      -1.051499       -28.6127
  37   1.0000      -1.046300       -28.4713
  38   1.0000      -1.043837       -28.4043
  39   1.0000      -1.039783       -28.2939
  40   1.0000      -0.993632       -27.0381
  41   1.0000      -0.988670       -26.9031
  42   1.0000      -0.926691       -25.2166
  43   1.0000      -0.918096       -24.9827
  44   1.0000      -0.909098       -24.7378
  45   1.0000      -0.909057       -24.7367
  46   1.0000      -0.899381       -24.4734
  47   1.0000      -0.898970       -24.4622
  48   1.0000      -0.793598       -21.5949
  49   1.0000      -0.760803       -20.7025
  50   1.0000      -0.691951       -18.8289
  51   1.0000      -0.686998       -18.6942
  52   1.0000      -0.677213       -18.4279
  53   1.0000      -0.670817       -18.2539
  54   1.0000      -0.649476       -17.6731
  55   1.0000      -0.624999       -17.0071
  56   1.0000      -0.602750       -16.4017
  57   1.0000      -0.596733       -16.2379
  58   1.0000      -0.584001       -15.8915
  59   1.0000      -0.578176       -15.7330
  60   1.0000      -0.569619       -15.5001
  61   1.0000      -0.567392       -15.4395
  62   1.0000      -0.557459       -15.1692
  63   1.0000      -0.543796       -14.7974
  64   1.0000      -0.534139       -14.5347
  65   1.0000      -0.522554       -14.2194
  66   1.0000      -0.516982       -14.0678
  67   1.0000      -0.481355       -13.0983
  68   1.0000      -0.465390       -12.6639
  69   1.0000      -0.457107       -12.4385
  70   1.0000      -0.432376       -11.7655
  71   1.0000      -0.428586       -11.6624
  72   1.0000      -0.425929       -11.5901
  73   1.0000      -0.417681       -11.3657
  74   1.0000      -0.415992       -11.3197
  75   1.0000      -0.415367       -11.3027
  76   1.0000      -0.384219       -10.4551
  77   0.0000       0.008565         0.2331
  78   0.0000       0.020121         0.5475
  79   0.0000       0.021314         0.5800
  80   0.0000       0.025719         0.6999
  81   0.0000       0.032501         0.8844

                 SPIN DOWN ORBITALS
  NO   OCC          E(Eh)            E(eV)
   0   1.0000    -261.553132     -7117.2226
   1   1.0000    -104.778250     -2851.1611
   2   1.0000    -104.775493     -2851.0861
   3   1.0000    -104.774957     -2851.0715
   4   1.0000     -32.062483      -872.4645
   5   1.0000     -27.540456      -749.4139
   6   1.0000     -27.540374      -749.4117
   7   1.0000     -27.540064      -749.4032
   8   1.0000     -20.569996      -559.7380
   9   1.0000     -11.397443      -310.1402
  10   1.0000     -11.334189      -308.4190
  11   1.0000     -11.277343      -306.8721
  12   1.0000     -11.272380      -306.7370
  13   1.0000     -11.261845      -306.4504
  14   1.0000     -11.256327      -306.3002
  15   1.0000     -11.255301      -306.2723
  16   1.0000     -11.246521      -306.0334
  17   1.0000     -10.504788      -285.8498
  18   1.0000     -10.502023      -285.7746
  19   1.0000     -10.501455      -285.7591
  20   1.0000      -7.970682      -216.8933
  21   1.0000      -7.970057      -216.8763
  22   1.0000      -7.969989      -216.8744
  23   1.0000      -7.967937      -216.8186
  24   1.0000      -7.967425      -216.8047
  25   1.0000      -7.967271      -216.8005
  26   1.0000      -7.967179      -216.7980
  27   1.0000      -7.966681      -216.7844
  28   1.0000      -7.966582      -216.7817
  29   1.0000      -4.137503      -112.5872
  30   1.0000      -2.659195       -72.3604
  31   1.0000      -2.659160       -72.3594
  32   1.0000      -2.658493       -72.3413
  33   1.0000      -1.406037       -38.2602
  34   1.0000      -1.166730       -31.7483
  35   1.0000      -1.081407       -29.4266
  36   1.0000      -1.040636       -28.3172
  37   1.0000      -1.035999       -28.1910
  38   1.0000      -1.024511       -27.8783
  39   1.0000      -1.022668       -27.8282
  40   1.0000      -0.993612       -27.0376
  41   1.0000      -0.987968       -26.8840
  42   1.0000      -0.919777       -25.0284
  43   1.0000      -0.807841       -21.9825
  44   1.0000      -0.761146       -20.7118
  45   1.0000      -0.693628       -18.8746
  46   1.0000      -0.686724       -18.6867
  47   1.0000      -0.678165       -18.4538
  48   1.0000      -0.669795       -18.2260
  49   1.0000      -0.649278       -17.6678
  50   1.0000      -0.624304       -16.9882
  51   1.0000      -0.602357       -16.3910
  52   1.0000      -0.596380       -16.2283
  53   1.0000      -0.583860       -15.8876
  54   1.0000      -0.578058       -15.7298
  55   1.0000      -0.568938       -15.4816
  56   1.0000      -0.567349       -15.4384
  57   1.0000      -0.557312       -15.1652
  58   1.0000      -0.543279       -14.7834
  59   1.0000      -0.531319       -14.4579
  60   1.0000      -0.522024       -14.2050
  61   1.0000      -0.508027       -13.8241
  62   1.0000      -0.479323       -13.0430
  63   1.0000      -0.469817       -12.7844
  64   1.0000      -0.467414       -12.7190
  65   1.0000      -0.440803       -11.9949
  66   1.0000      -0.437594       -11.9075
  67   1.0000      -0.435590       -11.8530
  68   1.0000      -0.422948       -11.5090
  69   1.0000      -0.415599       -11.3090
  70   1.0000      -0.401244       -10.9184
  71   1.0000      -0.381833       -10.3902
  72   0.0000       0.008570         0.2332
  73   0.0000       0.020112         0.5473
  74   0.0000       0.021366         0.5814
  75   0.0000       0.025613         0.6970
  76   0.0000       0.032157         0.8750

E(0)                                       ...  -3028.432306855
E(0)                                       ...  -3028.432306855
E(CORR)(strong-pairs)                      ...     -2.875027208
E(CORR)(weak-pairs)                        ...     -0.035860471
E(CORR)(corrected)                         ...     -2.910887679
E(TOT)                                     ...  -3031.343194534
E(CCSD(T))                                 ...  -3031.463759895
FINAL SINGLE POINT ENERGY     -3031.463759894939

DIPOLE MOMENT
-------------
                                X             Y             Z
Electronic contribution:     43.27249       6.10906      -1.15407
Nuclear contribution   :    -48.00642      -6.86720       0.98840
                        -----------------------------------------
Total Dipole Moment    :     -4.73393      -0.75814      -0.16567
                        -----------------------------------------
Magnitude (a.u.)       :      4.79712
Magnitude (Debye)      :     12.19330

Rotational constants in cm-1:     0.019579     0.010386     0.009913
Rotational constants in MHz :   586.966860   311.378095   297.171318

                             ****ORCA TERMINATED NORMALLY****
TOTAL RUN TIME: 0 days 19 hours 18 minutes 16 seconds 222 msec
