                         Program Version 4.1.2  - RELEASE  -
|  1> ! aug-cc-pVTZ aug-cc-pVTZ/C DLPNO-CCSD(T1) TightSCF NormalPNO UNO MiniPrint AutoAux
|  2> %pal nproc 10 end
|  3> %maxcore 20000
|  4> %mdci
|  5>      density none
|  6> end
|  7>
|  8> * xyz 0 6
|  9>  O      0.26357900      0.27991500     -0.80398000
| 10>  C      1.05796600      1.24270800     -0.64776200
| 11>  C      3.12805700      0.04573200      0.37300900
| 12>  C      2.50541800     -1.00159100     -0.20868900
| 13>  C      2.75704200     -1.37133400     -1.64337900
| 14> Fe     -1.46348700     -0.12748000      0.03722200
| 15> Cl     -2.10276200     -1.98096200     -0.90844700
| 16>  C      1.59813900     -1.94820000      0.51933400
| 17> Cl     -2.60301400      1.66344300     -0.50609400
| 18> Cl     -1.17087500     -0.27488800      2.20913700
| 19>  H      3.83695200      0.60611800     -0.23610600
| 20>  H      2.12994900     -2.89454700      0.69010600
| 21>  H      1.25534600     -1.57804600      1.48507800
| 22>  H      0.72187000     -2.19548900     -0.09009800
| 23>  H      3.12885800     -2.40255500     -1.69893600
| 24>  H      1.82184700     -1.34847300     -2.21738700
| 25>  H      3.49468800     -0.72215300     -2.12328800
| 26>  C      3.14268300      0.37272000      1.84214400
| 27>  H      4.00503100     -0.10748200      2.32446000
| 28>  H      3.24678600      1.44853600      2.01592000
| 29>  H      2.24599800      0.03053800      2.36509800
| 30>  C      0.93203700      2.15492900      0.53220000
| 31>  H      1.82082200      2.77029400      0.67420200
| 32>  H      0.08184600      2.81734900      0.30925900
| 33>  H      0.68633800      1.60977600      1.44364300
| 34>  C      1.79994600      1.74330600     -1.85113000
| 35>  H      1.14087300      2.49385800     -2.31257100
| 36>  H      2.73625400      2.23702600     -1.58784100
| 37>  H      1.96390600      0.95170200     -2.57997500
| 38> *
| 39>
| 40>
| 41>                          ****END OF INPUT****

CARTESIAN COORDINATES (ANGSTROEM)
---------------------------------
  O      0.263579    0.279915   -0.803980
  C      1.057966    1.242708   -0.647762
  C      3.128057    0.045732    0.373009
  C      2.505418   -1.001591   -0.208689
  C      2.757042   -1.371334   -1.643379
  Fe    -1.463487   -0.127480    0.037222
  Cl    -2.102762   -1.980962   -0.908447
  C      1.598139   -1.948200    0.519334
  Cl    -2.603014    1.663443   -0.506094
  Cl    -1.170875   -0.274888    2.209137
  H      3.836952    0.606118   -0.236106
  H      2.129949   -2.894547    0.690106
  H      1.255346   -1.578046    1.485078
  H      0.721870   -2.195489   -0.090098
  H      3.128858   -2.402555   -1.698936
  H      1.821847   -1.348473   -2.217387
  H      3.494688   -0.722153   -2.123288
  C      3.142683    0.372720    1.842144
  H      4.005031   -0.107482    2.324460
  H      3.246786    1.448536    2.015920
  H      2.245998    0.030538    2.365098
  C      0.932037    2.154929    0.532200
  H      1.820822    2.770294    0.674202
  H      0.081846    2.817349    0.309259
  H      0.686338    1.609776    1.443643
  C      1.799946    1.743306   -1.851130
  H      1.140873    2.493858   -2.312571
  H      2.736254    2.237026   -1.587841
  H      1.963906    0.951702   -2.579975

ORBITAL ENERGIES
----------------
                 SPIN UP ORBITALS
  NO   OCC          E(Eh)            E(eV)
   0   1.0000    -261.575301     -7117.8258
   1   1.0000    -104.792983     -2851.5620
   2   1.0000    -104.790227     -2851.4871
   3   1.0000    -104.788709     -2851.4457
   4   1.0000     -32.242999      -877.3766
   5   1.0000     -27.719458      -754.2848
   6   1.0000     -27.718351      -754.2547
   7   1.0000     -27.718180      -754.2500
   8   1.0000     -20.614990      -560.9624
   9   1.0000     -11.422033      -310.8093
  10   1.0000     -11.277238      -306.8692
  11   1.0000     -11.271237      -306.7059
  12   1.0000     -11.270800      -306.6941
  13   1.0000     -11.244518      -305.9789
  14   1.0000     -11.242396      -305.9212
  15   1.0000     -11.240437      -305.8678
  16   1.0000     -11.230722      -305.6035
  17   1.0000     -10.519696      -286.2555
  18   1.0000     -10.516907      -286.1796
  19   1.0000     -10.515336      -286.1369
  20   1.0000      -7.986529      -217.3245
  21   1.0000      -7.985775      -217.3040
  22   1.0000      -7.985723      -217.3026
  23   1.0000      -7.983798      -217.2502
  24   1.0000      -7.982998      -217.2284
  25   1.0000      -7.982934      -217.2267
  26   1.0000      -7.982123      -217.2046
  27   1.0000      -7.981460      -217.1866
  28   1.0000      -7.981414      -217.1853
  29   1.0000      -4.597875      -125.1145
  30   1.0000      -3.210994       -87.3756
  31   1.0000      -3.209294       -87.3293
  32   1.0000      -3.209151       -87.3254
  33   1.0000      -1.462030       -39.7839
  34   1.0000      -1.128914       -30.7193
  35   1.0000      -1.100989       -29.9594
  36   1.0000      -1.066179       -29.0122
  37   1.0000      -1.060534       -28.8586
  38   1.0000      -1.058033       -28.7905
  39   1.0000      -1.022687       -27.8287
  40   1.0000      -1.010110       -27.4865
  41   1.0000      -0.960020       -26.1235
  42   1.0000      -0.942123       -25.6365
  43   1.0000      -0.926820       -25.2200
  44   1.0000      -0.926709       -25.2170
  45   1.0000      -0.915991       -24.9254
  46   1.0000      -0.915518       -24.9125
  47   1.0000      -0.898638       -24.4532
  48   1.0000      -0.812498       -22.1092
  49   1.0000      -0.731035       -19.8925
  50   1.0000      -0.711084       -19.3496
  51   1.0000      -0.701957       -19.1012
  52   1.0000      -0.687357       -18.7039
  53   1.0000      -0.656750       -17.8711
  54   1.0000      -0.623146       -16.9567
  55   1.0000      -0.621649       -16.9159
  56   1.0000      -0.603608       -16.4250
  57   1.0000      -0.600087       -16.3292
  58   1.0000      -0.585679       -15.9371
  59   1.0000      -0.578840       -15.7510
  60   1.0000      -0.560555       -15.2535
  61   1.0000      -0.552826       -15.0431
  62   1.0000      -0.551067       -14.9953
  63   1.0000      -0.540715       -14.7136
  64   1.0000      -0.534712       -14.5503
  65   1.0000      -0.527404       -14.3514
  66   1.0000      -0.502237       -13.6666
  67   1.0000      -0.494790       -13.4639
  68   1.0000      -0.476737       -12.9727
  69   1.0000      -0.475348       -12.9349
  70   1.0000      -0.446175       -12.1410
  71   1.0000      -0.440105       -11.9759
  72   1.0000      -0.438502       -11.9322
  73   1.0000      -0.429852       -11.6969
  74   1.0000      -0.428639       -11.6639
  75   1.0000      -0.427789       -11.6407
  76   1.0000      -0.359922        -9.7940
  77   0.0000       0.012766         0.3474
  78   0.0000       0.023611         0.6425
  79   0.0000       0.024232         0.6594
  80   0.0000       0.030599         0.8326
  81   0.0000       0.039380         1.0716

                 SPIN DOWN ORBITALS
  NO   OCC          E(Eh)            E(eV)
   0   1.0000    -261.571725     -7117.7285
   1   1.0000    -104.791498     -2851.5216
   2   1.0000    -104.788683     -2851.4450
   3   1.0000    -104.787161     -2851.4036
   4   1.0000     -32.081008      -872.9686
   5   1.0000     -27.558933      -749.9167
   6   1.0000     -27.558856      -749.9146
   7   1.0000     -27.558733      -749.9113
   8   1.0000     -20.611469      -560.8666
   9   1.0000     -11.421929      -310.8065
  10   1.0000     -11.277132      -306.8664
  11   1.0000     -11.271232      -306.7058
  12   1.0000     -11.270849      -306.6954
  13   1.0000     -11.244418      -305.9762
  14   1.0000     -11.242388      -305.9209
  15   1.0000     -11.240448      -305.8681
  16   1.0000     -11.230733      -305.6038
  17   1.0000     -10.518109      -286.2123
  18   1.0000     -10.515258      -286.1347
  19   1.0000     -10.513691      -286.0921
  20   1.0000      -7.984027      -217.2564
  21   1.0000      -7.983298      -217.2366
  22   1.0000      -7.983251      -217.2353
  23   1.0000      -7.981125      -217.1774
  24   1.0000      -7.980471      -217.1597
  25   1.0000      -7.980374      -217.1570
  26   1.0000      -7.979683      -217.1382
  27   1.0000      -7.978794      -217.1140
  28   1.0000      -7.978714      -217.1119
  29   1.0000      -4.155766      -113.0841
  30   1.0000      -2.677324       -72.8537
  31   1.0000      -2.677275       -72.8524
  32   1.0000      -2.676825       -72.8401
  33   1.0000      -1.453318       -39.5468
  34   1.0000      -1.128581       -30.7102
  35   1.0000      -1.098662       -29.8961
  36   1.0000      -1.050661       -28.5900
  37   1.0000      -1.038153       -28.2496
  38   1.0000      -1.035494       -28.1772
  39   1.0000      -1.022075       -27.8121
  40   1.0000      -1.009508       -27.4701
  41   1.0000      -0.959862       -26.1192
  42   1.0000      -0.898827       -24.4583
  43   1.0000      -0.825112       -22.4524
  44   1.0000      -0.731099       -19.8942
  45   1.0000      -0.713263       -19.4089
  46   1.0000      -0.701121       -19.0785
  47   1.0000      -0.686626       -18.6840
  48   1.0000      -0.656684       -17.8693
  49   1.0000      -0.623014       -16.9531
  50   1.0000      -0.621168       -16.9028
  51   1.0000      -0.603352       -16.4180
  52   1.0000      -0.600037       -16.3278
  53   1.0000      -0.585418       -15.9300
  54   1.0000      -0.577944       -15.7267
  55   1.0000      -0.559557       -15.2263
  56   1.0000      -0.552736       -15.0407
  57   1.0000      -0.548865       -14.9354
  58   1.0000      -0.540745       -14.7144
  59   1.0000      -0.528871       -14.3913
  60   1.0000      -0.521965       -14.2034
  61   1.0000      -0.503475       -13.7002
  62   1.0000      -0.494574       -13.4580
  63   1.0000      -0.484615       -13.1871
  64   1.0000      -0.482548       -13.1308
  65   1.0000      -0.453348       -12.3362
  66   1.0000      -0.450395       -12.2559
  67   1.0000      -0.447560       -12.1787
  68   1.0000      -0.431182       -11.7331
  69   1.0000      -0.429037       -11.6747
  70   1.0000      -0.413053       -11.2397
  71   1.0000      -0.359211        -9.7746
  72   0.0000       0.012751         0.3470
  73   0.0000       0.023587         0.6418
  74   0.0000       0.024200         0.6585
  75   0.0000       0.030544         0.8311
  76   0.0000       0.039270         1.0686

E(0)                                       ...  -3028.458787994
E(0)                                       ...  -3028.458787994
E(CORR)(strong-pairs)                      ...     -2.868757683
E(CORR)(weak-pairs)                        ...     -0.035944056
E(CORR)(corrected)                         ...     -2.904701739
E(TOT)                                     ...  -3031.363489733
E(CCSD(T))                                 ...  -3031.481725171
FINAL SINGLE POINT ENERGY     -3031.481725171067

DIPOLE MOMENT
-------------
                                X             Y             Z
Electronic contribution:    -43.17879      -3.60975       2.08844
Nuclear contribution   :     46.56575       4.87174      -2.72710
                        -----------------------------------------
Total Dipole Moment    :      3.38696       1.26199      -0.63866
                        -----------------------------------------
Magnitude (a.u.)       :      3.67042
Magnitude (Debye)      :      9.32947

Rotational constants in cm-1:     0.018954     0.010891     0.010267
Rotational constants in MHz :   568.225802   326.509876   307.784045

                             ****ORCA TERMINATED NORMALLY****
TOTAL RUN TIME: 0 days 17 hours 39 minutes 19 seconds 175 msec
