                         Program Version 4.1.2  - RELEASE  -
|  1> ! aug-cc-pVTZ aug-cc-pVTZ/C DLPNO-CCSD(T1) TightSCF NormalPNO UNO MiniPrint AutoAux
|  2> %pal nproc 10 end
|  3> %maxcore 20000
|  4> %mdci
|  5>      density none
|  6> end
|  7>
|  8> * xyz 0 6
|  9>  O     -0.30484300     -0.16773700     -0.68735000
| 10>  C     -1.15656600     -1.10536800     -0.59060800
| 11>  C     -3.16145200     -0.00911900      0.14333100
| 12>  C     -2.37818100      1.04332900     -0.20044800
| 13>  C     -2.38284400      1.60819000     -1.58918300
| 14> Fe      1.46480700      0.08553100      0.05131000
| 15> Cl      2.09818200      1.99502700     -0.79774800
| 16>  C     -1.56103700      1.81799900      0.78922400
| 17> Cl      2.49731300     -1.70640900     -0.68376100
| 18> Cl      1.32002900      0.09436100      2.24655100
| 19>  H     -3.80212800     -0.42514900     -0.63214300
| 20>  H     -2.16503000      2.66110700      1.15350800
| 21>  H     -1.25134100      1.23452000      1.65676000
| 22>  H     -0.67023500      2.24410400      0.31930500
| 23>  H     -2.67716800      2.66464400     -1.54162700
| 24>  H     -1.37418100      1.58262100     -2.01692500
| 25>  H     -3.08140500      1.09418200     -2.25444100
| 26>  C     -3.48825400     -0.44600900      1.54592100
| 27>  H     -4.40087100      0.06321200      1.88430700
| 28>  H     -3.68906700     -1.52034600      1.60229400
| 29>  H     -2.70014800     -0.20755100      2.26399400
| 30>  C     -1.08062700     -2.05038800      0.57131100
| 31>  H     -1.96711000     -2.67814000      0.66061300
| 32>  H     -0.21695200     -2.69976600      0.36201800
| 33>  H     -0.87222400     -1.53122800      1.50698400
| 34>  C     -1.75253800     -1.62030200     -1.87120500
| 35>  H     -0.98634500     -2.28248400     -2.30060800
| 36>  H     -2.65917500     -2.20489700     -1.70883000
| 37>  H     -1.92777600     -0.81739400     -2.58625200
| 38> *
| 39>
| 40>
| 41>                          ****END OF INPUT****

CARTESIAN COORDINATES (ANGSTROEM)
---------------------------------
  O     -0.304843   -0.167737   -0.687350
  C     -1.156566   -1.105368   -0.590608
  C     -3.161452   -0.009119    0.143331
  C     -2.378181    1.043329   -0.200448
  C     -2.382844    1.608190   -1.589183
  Fe     1.464807    0.085531    0.051310
  Cl     2.098182    1.995027   -0.797748
  C     -1.561037    1.817999    0.789224
  Cl     2.497313   -1.706409   -0.683761
  Cl     1.320029    0.094361    2.246551
  H     -3.802128   -0.425149   -0.632143
  H     -2.165030    2.661107    1.153508
  H     -1.251341    1.234520    1.656760
  H     -0.670235    2.244104    0.319305
  H     -2.677168    2.664644   -1.541627
  H     -1.374181    1.582621   -2.016925
  H     -3.081405    1.094182   -2.254441
  C     -3.488254   -0.446009    1.545921
  H     -4.400871    0.063212    1.884307
  H     -3.689067   -1.520346    1.602294
  H     -2.700148   -0.207551    2.263994
  C     -1.080627   -2.050388    0.571311
  H     -1.967110   -2.678140    0.660613
  H     -0.216952   -2.699766    0.362018
  H     -0.872224   -1.531228    1.506984
  C     -1.752538   -1.620302   -1.871205
  H     -0.986345   -2.282484   -2.300608
  H     -2.659175   -2.204897   -1.708830
  H     -1.927776   -0.817394   -2.586252

ORBITAL ENERGIES
----------------
                 SPIN UP ORBITALS
  NO   OCC          E(Eh)            E(eV)
   0   1.0000    -261.569653     -7117.6721
   1   1.0000    -104.788706     -2851.4456
   2   1.0000    -104.786748     -2851.3924
   3   1.0000    -104.785655     -2851.3626
   4   1.0000     -32.237412      -877.2246
   5   1.0000     -27.713771      -754.1300
   6   1.0000     -27.712822      -754.1042
   7   1.0000     -27.712676      -754.1002
   8   1.0000     -20.597867      -560.4965
   9   1.0000     -11.420169      -310.7586
  10   1.0000     -11.289109      -307.1923
  11   1.0000     -11.273986      -306.7807
  12   1.0000     -11.268603      -306.6343
  13   1.0000     -11.252620      -306.1994
  14   1.0000     -11.247872      -306.0702
  15   1.0000     -11.246263      -306.0264
  16   1.0000     -11.238698      -305.8205
  17   1.0000     -10.515382      -286.1381
  18   1.0000     -10.513379      -286.0836
  19   1.0000     -10.512248      -286.0528
  20   1.0000      -7.982232      -217.2076
  21   1.0000      -7.981452      -217.1863
  22   1.0000      -7.981410      -217.1852
  23   1.0000      -7.980260      -217.1539
  24   1.0000      -7.979475      -217.1325
  25   1.0000      -7.979393      -217.1303
  26   1.0000      -7.979042      -217.1208
  27   1.0000      -7.978369      -217.1025
  28   1.0000      -7.978308      -217.1008
  29   1.0000      -4.592489      -124.9680
  30   1.0000      -3.205574       -87.2281
  31   1.0000      -3.204035       -87.1862
  32   1.0000      -3.203811       -87.1801
  33   1.0000      -1.449861       -39.4527
  34   1.0000      -1.140600       -31.0373
  35   1.0000      -1.097470       -29.8637
  36   1.0000      -1.061650       -28.8890
  37   1.0000      -1.056218       -28.7412
  38   1.0000      -1.054021       -28.6814
  39   1.0000      -1.027388       -27.9567
  40   1.0000      -1.008833       -27.4517
  41   1.0000      -0.968008       -26.3408
  42   1.0000      -0.938038       -25.5253
  43   1.0000      -0.921692       -25.0805
  44   1.0000      -0.921545       -25.0765
  45   1.0000      -0.911137       -24.7933
  46   1.0000      -0.910962       -24.7885
  47   1.0000      -0.907140       -24.6845
  48   1.0000      -0.806093       -21.9349
  49   1.0000      -0.739681       -20.1277
  50   1.0000      -0.704217       -19.1627
  51   1.0000      -0.697721       -18.9859
  52   1.0000      -0.689720       -18.7682
  53   1.0000      -0.663250       -18.0480
  54   1.0000      -0.630555       -17.1583
  55   1.0000      -0.620296       -16.8791
  56   1.0000      -0.603210       -16.4142
  57   1.0000      -0.600440       -16.3388
  58   1.0000      -0.583862       -15.8877
  59   1.0000      -0.578332       -15.7372
  60   1.0000      -0.563317       -15.3286
  61   1.0000      -0.560874       -15.2622
  62   1.0000      -0.552378       -15.0310
  63   1.0000      -0.544788       -14.8244
  64   1.0000      -0.535990       -14.5850
  65   1.0000      -0.526694       -14.3321
  66   1.0000      -0.504042       -13.7157
  67   1.0000      -0.495998       -13.4968
  68   1.0000      -0.474148       -12.9022
  69   1.0000      -0.469577       -12.7778
  70   1.0000      -0.442452       -12.0397
  71   1.0000      -0.436612       -11.8808
  72   1.0000      -0.435194       -11.8422
  73   1.0000      -0.426680       -11.6106
  74   1.0000      -0.425038       -11.5659
  75   1.0000      -0.424758       -11.5582
  76   1.0000      -0.364853        -9.9282
  77   0.0000       0.012395         0.3373
  78   0.0000       0.023247         0.6326
  79   0.0000       0.023496         0.6393
  80   0.0000       0.030363         0.8262
  81   0.0000       0.039366         1.0712

                 SPIN DOWN ORBITALS
  NO   OCC          E(Eh)            E(eV)
   0   1.0000    -261.566089     -7117.5751
   1   1.0000    -104.787236     -2851.4056
   2   1.0000    -104.785239     -2851.3513
   3   1.0000    -104.784153     -2851.3218
   4   1.0000     -32.075402      -872.8161
   5   1.0000     -27.553326      -749.7641
   6   1.0000     -27.553277      -749.7628
   7   1.0000     -27.553069      -749.7571
   8   1.0000     -20.594010      -560.3915
   9   1.0000     -11.420012      -310.7543
  10   1.0000     -11.289166      -307.1938
  11   1.0000     -11.273883      -306.7780
  12   1.0000     -11.268595      -306.6341
  13   1.0000     -11.252429      -306.1942
  14   1.0000     -11.247892      -306.0707
  15   1.0000     -11.246250      -306.0260
  16   1.0000     -11.238712      -305.8209
  17   1.0000     -10.513810      -286.0953
  18   1.0000     -10.511765      -286.0397
  19   1.0000     -10.510649      -286.0093
  20   1.0000      -7.979717      -217.1391
  21   1.0000      -7.979032      -217.1205
  22   1.0000      -7.978974      -217.1189
  23   1.0000      -7.977645      -217.0827
  24   1.0000      -7.977002      -217.0653
  25   1.0000      -7.976902      -217.0626
  26   1.0000      -7.976636      -217.0553
  27   1.0000      -7.975803      -217.0326
  28   1.0000      -7.975718      -217.0303
  29   1.0000      -4.150287      -112.9351
  30   1.0000      -2.671873       -72.7054
  31   1.0000      -2.671826       -72.7041
  32   1.0000      -2.671397       -72.6924
  33   1.0000      -1.440135       -39.1881
  34   1.0000      -1.140109       -31.0239
  35   1.0000      -1.094950       -29.7951
  36   1.0000      -1.046400       -28.4740
  37   1.0000      -1.034123       -28.1399
  38   1.0000      -1.032244       -28.0888
  39   1.0000      -1.026941       -27.9445
  40   1.0000      -1.008031       -27.4299
  41   1.0000      -0.967890       -26.3376
  42   1.0000      -0.907737       -24.7008
  43   1.0000      -0.819719       -22.3057
  44   1.0000      -0.739726       -20.1290
  45   1.0000      -0.707085       -19.2408
  46   1.0000      -0.697253       -18.9732
  47   1.0000      -0.688321       -18.7302
  48   1.0000      -0.663188       -18.0463
  49   1.0000      -0.630458       -17.1556
  50   1.0000      -0.619885       -16.8679
  51   1.0000      -0.602930       -16.4066
  52   1.0000      -0.600384       -16.3373
  53   1.0000      -0.583480       -15.8773
  54   1.0000      -0.577793       -15.7225
  55   1.0000      -0.563008       -15.3202
  56   1.0000      -0.560712       -15.2577
  57   1.0000      -0.549609       -14.9556
  58   1.0000      -0.544610       -14.8196
  59   1.0000      -0.535118       -14.5613
  60   1.0000      -0.517273       -14.0757
  61   1.0000      -0.504040       -13.7156
  62   1.0000      -0.495663       -13.4877
  63   1.0000      -0.479906       -13.0589
  64   1.0000      -0.478780       -13.0283
  65   1.0000      -0.449761       -12.2386
  66   1.0000      -0.446632       -12.1535
  67   1.0000      -0.444275       -12.0893
  68   1.0000      -0.428805       -11.6684
  69   1.0000      -0.425328       -11.5738
  70   1.0000      -0.410072       -11.1586
  71   1.0000      -0.363690        -9.8965
  72   0.0000       0.012384         0.3370
  73   0.0000       0.023218         0.6318
  74   0.0000       0.023472         0.6387
  75   0.0000       0.030348         0.8258
  76   0.0000       0.039303         1.0695

E(0)                                       ...  -3028.443116317
E(0)                                       ...  -3028.443116317
E(CORR)(strong-pairs)                      ...     -2.870659008
E(CORR)(weak-pairs)                        ...     -0.036560346
E(CORR)(corrected)                         ...     -2.907219354
E(TOT)                                     ...  -3031.350335670
E(CCSD(T))                                 ...  -3031.469180694
FINAL SINGLE POINT ENERGY     -3031.469180693834

DIPOLE MOMENT
-------------
                                X             Y             Z
Electronic contribution:     43.02271       2.65731       2.23877
Nuclear contribution   :    -46.74411      -3.56541      -2.82575
                        -----------------------------------------
Total Dipole Moment    :     -3.72140      -0.90810      -0.58698
                        -----------------------------------------
Magnitude (a.u.)       :      3.87531
Magnitude (Debye)      :      9.85025

Rotational constants in cm-1:     0.019333     0.010970     0.010333
Rotational constants in MHz :   579.591860   328.881746   309.781937

                             ****ORCA TERMINATED NORMALLY****
TOTAL RUN TIME: 0 days 18 hours 37 minutes 12 seconds 902 msec
