                         Program Version 4.1.2  - RELEASE  -
|  1> ! aug-cc-pVTZ aug-cc-pVTZ/C DLPNO-CCSD(T1) TightSCF NormalPNO UNO MiniPrint AutoAux
|  2> %pal nproc 10 end
|  3> %maxcore 20000
|  4> %mdci
|  5>      density none
|  6> end
|  7>
|  8> * xyz 0 6
|  9>  O     -0.30763000     -0.18210500     -0.68216800
| 10>  C     -1.12667800     -1.13994400     -0.58646200
| 11>  C     -3.21320800      0.03311300      0.13487000
| 12>  C     -2.37920200      1.03979000     -0.21520300
| 13>  C     -2.35895500      1.59070800     -1.61141000
| 14> Fe      1.47038400      0.09103200      0.05642500
| 15> Cl      2.10252800      1.98454100     -0.82180600
| 16>  C     -1.55486600      1.80948600      0.77544900
| 17> Cl      2.48908300     -1.71259700     -0.66822600
| 18> Cl      1.33743200      0.11622600      2.24880900
| 19>  H     -3.85006800     -0.38076900     -0.64569000
| 20>  H     -2.14332600      2.66802400      1.12823800
| 21>  H     -1.26341000      1.22850100      1.65131300
| 22>  H     -0.65178800      2.21458900      0.31064600
| 23>  H     -2.64639300      2.64984400     -1.58070600
| 24>  H     -1.34730100      1.55248900     -2.03028000
| 25>  H     -3.05492200      1.07512000     -2.27887100
| 26>  C     -3.54837200     -0.40339300      1.53450200
| 27>  H     -4.46710100      0.09798500      1.86855000
| 28>  H     -3.74208100     -1.47979300      1.59114800
| 29>  H     -2.76637700     -0.15899600      2.25755700
| 30>  C     -1.07909200     -2.04741200      0.60347000
| 31>  H     -1.97426900     -2.66234600      0.69585700
| 32>  H     -0.21869800     -2.71274300      0.43361900
| 33>  H     -0.88357100     -1.49788200      1.52462600
| 34>  C     -1.73992000     -1.66058300     -1.85287100
| 35>  H     -0.99219700     -2.34740000     -2.27722900
| 36>  H     -2.65754900     -2.22278100     -1.67447100
| 37>  H     -1.90185600     -0.86333100     -2.57727900
| 38> *
| 39>
| 40>
| 41>                          ****END OF INPUT****

CARTESIAN COORDINATES (ANGSTROEM)
---------------------------------
  O     -0.307630   -0.182105   -0.682168
  C     -1.126678   -1.139944   -0.586462
  C     -3.213208    0.033113    0.134870
  C     -2.379202    1.039790   -0.215203
  C     -2.358955    1.590708   -1.611410
  Fe     1.470384    0.091032    0.056425
  Cl     2.102528    1.984541   -0.821806
  C     -1.554866    1.809486    0.775449
  Cl     2.489083   -1.712597   -0.668226
  Cl     1.337432    0.116226    2.248809
  H     -3.850068   -0.380769   -0.645690
  H     -2.143326    2.668024    1.128238
  H     -1.263410    1.228501    1.651313
  H     -0.651788    2.214589    0.310646
  H     -2.646393    2.649844   -1.580706
  H     -1.347301    1.552489   -2.030280
  H     -3.054922    1.075120   -2.278871
  C     -3.548372   -0.403393    1.534502
  H     -4.467101    0.097985    1.868550
  H     -3.742081   -1.479793    1.591148
  H     -2.766377   -0.158996    2.257557
  C     -1.079092   -2.047412    0.603470
  H     -1.974269   -2.662346    0.695857
  H     -0.218698   -2.712743    0.433619
  H     -0.883571   -1.497882    1.524626
  C     -1.739920   -1.660583   -1.852871
  H     -0.992197   -2.347400   -2.277229
  H     -2.657549   -2.222781   -1.674471
  H     -1.901856   -0.863331   -2.577279

ORBITAL ENERGIES
----------------
                 SPIN UP ORBITALS
  NO   OCC          E(Eh)            E(eV)
   0   1.0000    -261.572517     -7117.7501
   1   1.0000    -104.790498     -2851.4944
   2   1.0000    -104.788833     -2851.4491
   3   1.0000    -104.787562     -2851.4145
   4   1.0000     -32.240241      -877.3015
   5   1.0000     -27.716662      -754.2087
   6   1.0000     -27.715616      -754.1803
   7   1.0000     -27.715470      -754.1763
   8   1.0000     -20.604715      -560.6828
   9   1.0000     -11.422566      -310.8238
  10   1.0000     -11.279811      -306.9393
  11   1.0000     -11.276029      -306.8363
  12   1.0000     -11.271047      -306.7008
  13   1.0000     -11.247510      -306.0603
  14   1.0000     -11.245442      -306.0040
  15   1.0000     -11.242298      -305.9185
  16   1.0000     -11.235646      -305.7375
  17   1.0000     -10.517183      -286.1871
  18   1.0000     -10.515472      -286.1405
  19   1.0000     -10.514161      -286.1049
  20   1.0000      -7.984026      -217.2564
  21   1.0000      -7.983260      -217.2355
  22   1.0000      -7.983214      -217.2343
  23   1.0000      -7.982361      -217.2111
  24   1.0000      -7.981566      -217.1895
  25   1.0000      -7.981484      -217.1872
  26   1.0000      -7.980950      -217.1727
  27   1.0000      -7.980285      -217.1546
  28   1.0000      -7.980228      -217.1530
  29   1.0000      -4.595257      -125.0433
  30   1.0000      -3.208405       -87.3051
  31   1.0000      -3.206729       -87.2595
  32   1.0000      -3.206541       -87.2544
  33   1.0000      -1.457237       -39.6534
  34   1.0000      -1.134409       -30.8688
  35   1.0000      -1.100169       -29.9371
  36   1.0000      -1.063799       -28.9474
  37   1.0000      -1.058363       -28.7995
  38   1.0000      -1.056230       -28.7415
  39   1.0000      -1.024311       -27.8729
  40   1.0000      -1.011230       -27.5170
  41   1.0000      -0.964116       -26.2349
  42   1.0000      -0.940508       -25.5925
  43   1.0000      -0.924418       -25.1547
  44   1.0000      -0.924256       -25.1503
  45   1.0000      -0.913560       -24.8592
  46   1.0000      -0.913429       -24.8557
  47   1.0000      -0.902734       -24.5647
  48   1.0000      -0.809516       -22.0280
  49   1.0000      -0.735214       -20.0062
  50   1.0000      -0.708112       -19.2687
  51   1.0000      -0.700976       -19.0745
  52   1.0000      -0.691234       -18.8094
  53   1.0000      -0.659435       -17.9441
  54   1.0000      -0.626811       -17.0564
  55   1.0000      -0.621029       -16.8991
  56   1.0000      -0.602676       -16.3996
  57   1.0000      -0.600933       -16.3522
  58   1.0000      -0.584808       -15.9134
  59   1.0000      -0.579414       -15.7666
  60   1.0000      -0.560967       -15.2647
  61   1.0000      -0.559098       -15.2138
  62   1.0000      -0.553458       -15.0604
  63   1.0000      -0.541685       -14.7400
  64   1.0000      -0.533067       -14.5055
  65   1.0000      -0.527668       -14.3586
  66   1.0000      -0.500539       -13.6204
  67   1.0000      -0.497965       -13.5503
  68   1.0000      -0.476029       -12.9534
  69   1.0000      -0.471948       -12.8424
  70   1.0000      -0.444615       -12.0986
  71   1.0000      -0.438426       -11.9302
  72   1.0000      -0.437009       -11.8916
  73   1.0000      -0.428521       -11.6607
  74   1.0000      -0.426820       -11.6144
  75   1.0000      -0.426611       -11.6087
  76   1.0000      -0.360955        -9.8221
  77   0.0000       0.012726         0.3463
  78   0.0000       0.023694         0.6447
  79   0.0000       0.023954         0.6518
  80   0.0000       0.030407         0.8274
  81   0.0000       0.039578         1.0770

                 SPIN DOWN ORBITALS
  NO   OCC          E(Eh)            E(eV)
   0   1.0000    -261.568950     -7117.6530
   1   1.0000    -104.789010     -2851.4539
   2   1.0000    -104.787314     -2851.4078
   3   1.0000    -104.786042     -2851.3732
   4   1.0000     -32.078250      -872.8936
   5   1.0000     -27.556176      -749.8417
   6   1.0000     -27.556112      -749.8399
   7   1.0000     -27.555939      -749.8352
   8   1.0000     -20.601059      -560.5833
   9   1.0000     -11.422393      -310.8191
  10   1.0000     -11.279923      -306.9423
  11   1.0000     -11.275930      -306.8337
  12   1.0000     -11.271042      -306.7007
  13   1.0000     -11.247295      -306.0545
  14   1.0000     -11.245460      -306.0045
  15   1.0000     -11.242278      -305.9179
  16   1.0000     -11.235652      -305.7376
  17   1.0000     -10.515593      -286.1438
  18   1.0000     -10.513848      -286.0964
  19   1.0000     -10.512544      -286.0609
  20   1.0000      -7.981506      -217.1878
  21   1.0000      -7.980793      -217.1684
  22   1.0000      -7.980736      -217.1669
  23   1.0000      -7.979718      -217.1392
  24   1.0000      -7.979085      -217.1219
  25   1.0000      -7.978981      -217.1191
  26   1.0000      -7.978535      -217.1070
  27   1.0000      -7.977677      -217.0836
  28   1.0000      -7.977594      -217.0814
  29   1.0000      -4.153101      -113.0116
  30   1.0000      -2.674669       -72.7814
  31   1.0000      -2.674605       -72.7797
  32   1.0000      -2.674248       -72.7700
  33   1.0000      -1.448038       -39.4031
  34   1.0000      -1.133998       -30.8577
  35   1.0000      -1.097743       -29.8711
  36   1.0000      -1.048381       -28.5279
  37   1.0000      -1.036024       -28.1916
  38   1.0000      -1.034203       -28.1421
  39   1.0000      -1.023811       -27.8593
  40   1.0000      -1.010510       -27.4974
  41   1.0000      -0.963963       -26.2308
  42   1.0000      -0.903127       -24.5753
  43   1.0000      -0.822886       -22.3919
  44   1.0000      -0.735272       -20.0078
  45   1.0000      -0.710805       -19.3420
  46   1.0000      -0.700244       -19.0546
  47   1.0000      -0.690184       -18.7809
  48   1.0000      -0.659408       -17.9434
  49   1.0000      -0.626689       -17.0531
  50   1.0000      -0.620640       -16.8885
  51   1.0000      -0.602480       -16.3943
  52   1.0000      -0.600890       -16.3511
  53   1.0000      -0.584417       -15.9028
  54   1.0000      -0.578761       -15.7489
  55   1.0000      -0.560604       -15.2548
  56   1.0000      -0.558846       -15.2070
  57   1.0000      -0.550828       -14.9888
  58   1.0000      -0.541623       -14.7383
  59   1.0000      -0.531812       -14.4713
  60   1.0000      -0.519001       -14.1227
  61   1.0000      -0.500656       -13.6235
  62   1.0000      -0.497703       -13.5432
  63   1.0000      -0.482018       -13.1164
  64   1.0000      -0.480909       -13.0862
  65   1.0000      -0.451695       -12.2912
  66   1.0000      -0.448545       -12.2055
  67   1.0000      -0.446032       -12.1371
  68   1.0000      -0.430354       -11.7105
  69   1.0000      -0.427300       -11.6274
  70   1.0000      -0.411726       -11.2036
  71   1.0000      -0.359977        -9.7955
  72   0.0000       0.012715         0.3460
  73   0.0000       0.023666         0.6440
  74   0.0000       0.023924         0.6510
  75   0.0000       0.030383         0.8268
  76   0.0000       0.039509         1.0751

E(0)                                       ...  -3028.447125501
E(0)                                       ...  -3028.447125501
E(CORR)(strong-pairs)                      ...     -2.869917041
E(CORR)(weak-pairs)                        ...     -0.036359387
E(CORR)(corrected)                         ...     -2.906276428
E(TOT)                                     ...  -3031.353401929
E(CCSD(T))                                 ...  -3031.471962649
FINAL SINGLE POINT ENERGY     -3031.471962649144

DIPOLE MOMENT
-------------
                                X             Y             Z
Electronic contribution:     43.34520       2.57096       2.22022
Nuclear contribution   :    -46.89873      -3.60937      -2.80884
                        -----------------------------------------
Total Dipole Moment    :     -3.55353      -1.03841      -0.58862
                        -----------------------------------------
Magnitude (a.u.)       :      3.74864
Magnitude (Debye)      :      9.52830

Rotational constants in cm-1:     0.019312     0.010901     0.010275
Rotational constants in MHz :   578.974094   326.813930   308.033453

                             ****ORCA TERMINATED NORMALLY****
TOTAL RUN TIME: 0 days 18 hours 58 minutes 21 seconds 439 msec
