                         Program Version 4.1.2  - RELEASE  -
|  1> ! aug-cc-pVTZ aug-cc-pVTZ/C DLPNO-CCSD(T1) TightSCF NormalPNO UNO MiniPrint AutoAux
|  2> %pal nproc 10 end
|  3> %maxcore 20000
|  4> %mdci
|  5>      density none
|  6> end
|  7>
|  8> * xyz 0 6
|  9>  O     -0.28948800     -0.21477500     -0.78635700
| 10>  C     -1.14919700     -1.14479400     -0.63664700
| 11>  C     -2.93822400     -0.17429700      0.43457700
| 12>  C     -2.50442900      0.98153500     -0.13605800
| 13>  C     -2.91741800      1.39161900     -1.51685100
| 14> Fe      1.43979100      0.12109900      0.00960600
| 15> Cl      2.06071800      2.03452700     -0.84071200
| 16>  C     -1.60482000      1.95519800      0.55408600
| 17> Cl      2.60476700     -1.62633900     -0.61936600
| 18> Cl      1.16910200      0.18269900      2.19926200
| 19>  H     -3.67940500     -0.74915500     -0.11770100
| 20>  H     -2.18057400      2.86139400      0.78925600
| 21>  H     -1.17163900      1.57881600      1.47940100
| 22>  H     -0.79268400      2.26741600     -0.11240800
| 23>  H     -3.34923800      2.39976400     -1.48114200
| 24>  H     -2.03828600      1.45574300     -2.17133300
| 25>  H     -3.65691900      0.72015100     -1.95911200
| 26>  C     -2.84619000     -0.48697300      1.90860000
| 27>  H     -3.64213700      0.04589400      2.44504600
| 28>  H     -2.99032500     -1.55279000      2.10226900
| 29>  H     -1.89425900     -0.18706200      2.35292500
| 30>  C     -0.92066300     -2.19633300      0.41503400
| 31>  H     -1.79326100     -2.83367200      0.56336200
| 32>  H     -0.09937700     -2.81638200      0.02664100
| 33>  H     -0.58565400     -1.77281100      1.36101400
| 34>  C     -1.86005600     -1.60390600     -1.88547500
| 35>  H     -1.15223600     -2.27688600     -2.38947200
| 36>  H     -2.76907800     -2.16823000     -1.67156500
| 37>  H     -2.06560500     -0.77993000     -2.56580300
| 38> *
| 39>
| 40>
| 41>                          ****END OF INPUT****

CARTESIAN COORDINATES (ANGSTROEM)
---------------------------------
  O     -0.289488   -0.214775   -0.786357
  C     -1.149197   -1.144794   -0.636647
  C     -2.938224   -0.174297    0.434577
  C     -2.504429    0.981535   -0.136058
  C     -2.917418    1.391619   -1.516851
  Fe     1.439791    0.121099    0.009606
  Cl     2.060718    2.034527   -0.840712
  C     -1.604820    1.955198    0.554086
  Cl     2.604767   -1.626339   -0.619366
  Cl     1.169102    0.182699    2.199262
  H     -3.679405   -0.749155   -0.117701
  H     -2.180574    2.861394    0.789256
  H     -1.171639    1.578816    1.479401
  H     -0.792684    2.267416   -0.112408
  H     -3.349238    2.399764   -1.481142
  H     -2.038286    1.455743   -2.171333
  H     -3.656919    0.720151   -1.959112
  C     -2.846190   -0.486973    1.908600
  H     -3.642137    0.045894    2.445046
  H     -2.990325   -1.552790    2.102269
  H     -1.894259   -0.187062    2.352925
  C     -0.920663   -2.196333    0.415034
  H     -1.793261   -2.833672    0.563362
  H     -0.099377   -2.816382    0.026641
  H     -0.585654   -1.772811    1.361014
  C     -1.860056   -1.603906   -1.885475
  H     -1.152236   -2.276886   -2.389472
  H     -2.769078   -2.168230   -1.671565
  H     -2.065605   -0.779930   -2.565803

ORBITAL ENERGIES
----------------
                 SPIN UP ORBITALS
  NO   OCC          E(Eh)            E(eV)
   0   1.0000    -261.567564     -7117.6153
   1   1.0000    -104.788325     -2851.4353
   2   1.0000    -104.784651     -2851.3353
   3   1.0000    -104.783583     -2851.3063
   4   1.0000     -32.235358      -877.1687
   5   1.0000     -27.711641      -754.0721
   6   1.0000     -27.710813      -754.0496
   7   1.0000     -27.710637      -754.0448
   8   1.0000     -20.594804      -560.4131
   9   1.0000     -11.415704      -310.6371
  10   1.0000     -11.297162      -307.4114
  11   1.0000     -11.271243      -306.7061
  12   1.0000     -11.264919      -306.5340
  13   1.0000     -11.256468      -306.3041
  14   1.0000     -11.254627      -306.2540
  15   1.0000     -11.244466      -305.9775
  16   1.0000     -11.239514      -305.8427
  17   1.0000     -10.515002      -286.1277
  18   1.0000     -10.511312      -286.0273
  19   1.0000     -10.510201      -285.9971
  20   1.0000      -7.981858      -217.1974
  21   1.0000      -7.981054      -217.1755
  22   1.0000      -7.981016      -217.1745
  23   1.0000      -7.978183      -217.0974
  24   1.0000      -7.977407      -217.0763
  25   1.0000      -7.977344      -217.0746
  26   1.0000      -7.977000      -217.0652
  27   1.0000      -7.976318      -217.0467
  28   1.0000      -7.976261      -217.0451
  29   1.0000      -4.590411      -124.9114
  30   1.0000      -3.203357       -87.1678
  31   1.0000      -3.202033       -87.1318
  32   1.0000      -3.201796       -87.1253
  33   1.0000      -1.441627       -39.2287
  34   1.0000      -1.145526       -31.1714
  35   1.0000      -1.094052       -29.7707
  36   1.0000      -1.060487       -28.8573
  37   1.0000      -1.054767       -28.7017
  38   1.0000      -1.052150       -28.6305
  39   1.0000      -1.029836       -28.0233
  40   1.0000      -1.003037       -27.2940
  41   1.0000      -0.971710       -26.4416
  42   1.0000      -0.935354       -25.4523
  43   1.0000      -0.919494       -25.0207
  44   1.0000      -0.919421       -25.0187
  45   1.0000      -0.909981       -24.7618
  46   1.0000      -0.909257       -24.7421
  47   1.0000      -0.908491       -24.7213
  48   1.0000      -0.802915       -21.8484
  49   1.0000      -0.743700       -20.2371
  50   1.0000      -0.699877       -19.0446
  51   1.0000      -0.691926       -18.8283
  52   1.0000      -0.685015       -18.6402
  53   1.0000      -0.666101       -18.1255
  54   1.0000      -0.633518       -17.2389
  55   1.0000      -0.621841       -16.9212
  56   1.0000      -0.604726       -16.4554
  57   1.0000      -0.597256       -16.2522
  58   1.0000      -0.583303       -15.8725
  59   1.0000      -0.574524       -15.6336
  60   1.0000      -0.564045       -15.3485
  61   1.0000      -0.557393       -15.1674
  62   1.0000      -0.551167       -14.9980
  63   1.0000      -0.548669       -14.9301
  64   1.0000      -0.537810       -14.6345
  65   1.0000      -0.527706       -14.3596
  66   1.0000      -0.506896       -13.7934
  67   1.0000      -0.493195       -13.4205
  68   1.0000      -0.471824       -12.8390
  69   1.0000      -0.468791       -12.7565
  70   1.0000      -0.440344       -11.9824
  71   1.0000      -0.435465       -11.8496
  72   1.0000      -0.433794       -11.8041
  73   1.0000      -0.425000       -11.5648
  74   1.0000      -0.423867       -11.5340
  75   1.0000      -0.422872       -11.5069
  76   1.0000      -0.369137       -10.0447
  77   0.0000       0.011957         0.3254
  78   0.0000       0.022290         0.6065
  79   0.0000       0.023244         0.6325
  80   0.0000       0.030204         0.8219
  81   0.0000       0.038511         1.0479

                 SPIN DOWN ORBITALS
  NO   OCC          E(Eh)            E(eV)
   0   1.0000    -261.564001     -7117.5183
   1   1.0000    -104.786893     -2851.3963
   2   1.0000    -104.783133     -2851.2940
   3   1.0000    -104.782084     -2851.2655
   4   1.0000     -32.073320      -872.7594
   5   1.0000     -27.551247      -749.7075
   6   1.0000     -27.551200      -749.7063
   7   1.0000     -27.550979      -749.7002
   8   1.0000     -20.590789      -560.3039
   9   1.0000     -11.415616      -310.6347
  10   1.0000     -11.297074      -307.4090
  11   1.0000     -11.271131      -306.7031
  12   1.0000     -11.264907      -306.5337
  13   1.0000     -11.256434      -306.3031
  14   1.0000     -11.254637      -306.2542
  15   1.0000     -11.244468      -305.9775
  16   1.0000     -11.239547      -305.8436
  17   1.0000     -10.513468      -286.0860
  18   1.0000     -10.509691      -285.9832
  19   1.0000     -10.508605      -285.9537
  20   1.0000      -7.979362      -217.1295
  21   1.0000      -7.978726      -217.1122
  22   1.0000      -7.978672      -217.1107
  23   1.0000      -7.975583      -217.0267
  24   1.0000      -7.974910      -217.0083
  25   1.0000      -7.974820      -217.0059
  26   1.0000      -7.974588      -216.9996
  27   1.0000      -7.973765      -216.9772
  28   1.0000      -7.973681      -216.9749
  29   1.0000      -4.148170      -112.8775
  30   1.0000      -2.669789       -72.6486
  31   1.0000      -2.669772       -72.6482
  32   1.0000      -2.669123       -72.6305
  33   1.0000      -1.431536       -38.9541
  34   1.0000      -1.144991       -31.1568
  35   1.0000      -1.091453       -29.6999
  36   1.0000      -1.045481       -28.4490
  37   1.0000      -1.033200       -28.1148
  38   1.0000      -1.030434       -28.0395
  39   1.0000      -1.029147       -28.0045
  40   1.0000      -1.002222       -27.2718
  41   1.0000      -0.971600       -26.4386
  42   1.0000      -0.910058       -24.7639
  43   1.0000      -0.816106       -22.2074
  44   1.0000      -0.743798       -20.2398
  45   1.0000      -0.702645       -19.1199
  46   1.0000      -0.691326       -18.8119
  47   1.0000      -0.683904       -18.6100
  48   1.0000      -0.665884       -18.1196
  49   1.0000      -0.633437       -17.2367
  50   1.0000      -0.621333       -16.9073
  51   1.0000      -0.604234       -16.4421
  52   1.0000      -0.597206       -16.2508
  53   1.0000      -0.583071       -15.8662
  54   1.0000      -0.573656       -15.6100
  55   1.0000      -0.563686       -15.3387
  56   1.0000      -0.557277       -15.1643
  57   1.0000      -0.550739       -14.9864
  58   1.0000      -0.546289       -14.8653
  59   1.0000      -0.536673       -14.6036
  60   1.0000      -0.517087       -14.0706
  61   1.0000      -0.506734       -13.7889
  62   1.0000      -0.493438       -13.4271
  63   1.0000      -0.478843       -13.0300
  64   1.0000      -0.476905       -12.9772
  65   1.0000      -0.448345       -12.2001
  66   1.0000      -0.445470       -12.1219
  67   1.0000      -0.442931       -12.0528
  68   1.0000      -0.427253       -11.6261
  69   1.0000      -0.423744       -11.5307
  70   1.0000      -0.408768       -11.1231
  71   1.0000      -0.367740       -10.0067
  72   0.0000       0.011945         0.3250
  73   0.0000       0.022266         0.6059
  74   0.0000       0.023226         0.6320
  75   0.0000       0.030128         0.8198
  76   0.0000       0.038292         1.0420

E(0)                                       ...  -3028.442836644
E(0)                                       ...  -3028.442836644
E(CORR)(strong-pairs)                      ...     -2.872403376
E(CORR)(weak-pairs)                        ...     -0.036316955
E(CORR)(corrected)                         ...     -2.908720331
E(TOT)                                     ...  -3031.351556975
E(CCSD(T))                                 ...  -3031.470861549
FINAL SINGLE POINT ENERGY     -3031.470861549099

DIPOLE MOMENT
-------------
                                X             Y             Z
Electronic contribution:     42.13100       4.02159       1.76409
Nuclear contribution   :    -45.98077      -4.93309      -2.36575
                        -----------------------------------------
Total Dipole Moment    :     -3.84977      -0.91150      -0.60166
                        -----------------------------------------
Magnitude (a.u.)       :      4.00170
Magnitude (Debye)      :     10.17151

Rotational constants in cm-1:     0.019085     0.011143     0.010487
Rotational constants in MHz :   572.144674   334.073376   314.395958

                             ****ORCA TERMINATED NORMALLY****
TOTAL RUN TIME: 0 days 19 hours 12 minutes 54 seconds 492 msec
