                         Program Version 4.1.2  - RELEASE  -
|  1> ! aug-cc-pVTZ aug-cc-pVTZ/C DLPNO-CCSD(T1) TightSCF NormalPNO UNO MiniPrint AutoAux
|  2> %pal nproc 10 end
|  3> %maxcore 20000
|  4> %mdci
|  5>      density none
|  6> end
|  7>
|  8> * xyz 0 6
|  9>  O      0.22180200      0.45796700     -0.82495300
| 10>  C      0.89859300      1.47914500     -0.59068100
| 11>  C      3.23006800     -0.06660000      0.49324300
| 12>  C      2.59616600     -0.93574400     -0.31509000
| 13>  C      2.92114100     -1.01513500     -1.78435600
| 14> Fe     -1.46210500     -0.17815900      0.03333900
| 15> Cl     -2.07041800     -1.91156600     -1.12310700
| 16>  C      1.64070000     -1.99512500      0.15832500
| 17> Cl     -2.70274900      1.60462500     -0.24596600
| 18> Cl     -1.06640900     -0.56165500      2.15261500
| 19>  H      3.97091700      0.59203300      0.03632600
| 20>  H      2.13392700     -2.97607700      0.11395000
| 21>  H      1.28763600     -1.84646700      1.17869900
| 22>  H      0.77047900     -2.06649700     -0.50356600
| 23>  H      3.34379700     -1.99943800     -2.02606100
| 24>  H      2.01295400     -0.91294800     -2.39182800
| 25>  H      3.64499400     -0.25477400     -2.09369000
| 26>  C      3.10149800      0.05432800      1.98612400
| 27>  H      3.96561400     -0.40130800      2.48914500
| 28>  H      3.08062000      1.10538300      2.29927300
| 29>  H      2.20168200     -0.42889800      2.37537900
| 30>  C      0.77901400      2.21630900      0.70388400
| 31>  H      1.63680700      2.86739400      0.88014700
| 32>  H     -0.12667000      2.83708100      0.63851400
| 33>  H      0.63969800      1.52557800      1.53726100
| 34>  C      1.70989000      2.08191700     -1.69197000
| 35>  H      1.22341100      3.02651900     -1.97433200
| 36>  H      2.71635000      2.32676400     -1.34374800
| 37>  H      1.74847200      1.42560900     -2.55975300
| 38> *
| 39>
| 40>
| 41>                          ****END OF INPUT****

CARTESIAN COORDINATES (ANGSTROEM)
---------------------------------
  O      0.221802    0.457967   -0.824953
  C      0.898593    1.479145   -0.590681
  C      3.230068   -0.066600    0.493243
  C      2.596166   -0.935744   -0.315090
  C      2.921141   -1.015135   -1.784356
  Fe    -1.462105   -0.178159    0.033339
  Cl    -2.070418   -1.911566   -1.123107
  C      1.640700   -1.995125    0.158325
  Cl    -2.702749    1.604625   -0.245966
  Cl    -1.066409   -0.561655    2.152615
  H      3.970917    0.592033    0.036326
  H      2.133927   -2.976077    0.113950
  H      1.287636   -1.846467    1.178699
  H      0.770479   -2.066497   -0.503566
  H      3.343797   -1.999438   -2.026061
  H      2.012954   -0.912948   -2.391828
  H      3.644994   -0.254774   -2.093690
  C      3.101498    0.054328    1.986124
  H      3.965614   -0.401308    2.489145
  H      3.080620    1.105383    2.299273
  H      2.201682   -0.428898    2.375379
  C      0.779014    2.216309    0.703884
  H      1.636807    2.867394    0.880147
  H     -0.126670    2.837081    0.638514
  H      0.639698    1.525578    1.537261
  C      1.709890    2.081917   -1.691970
  H      1.223411    3.026519   -1.974332
  H      2.716350    2.326764   -1.343748
  H      1.748472    1.425609   -2.559753

ORBITAL ENERGIES
----------------
                 SPIN UP ORBITALS
  NO   OCC          E(Eh)            E(eV)
   0   1.0000    -261.580668     -7117.9718
   1   1.0000    -104.796540     -2851.6588
   2   1.0000    -104.793811     -2851.5846
   3   1.0000    -104.792125     -2851.5387
   4   1.0000     -32.248272      -877.5201
   5   1.0000     -27.724849      -754.4315
   6   1.0000     -27.723563      -754.3965
   7   1.0000     -27.723373      -754.3913
   8   1.0000     -20.629428      -561.3553
   9   1.0000     -11.422762      -310.8292
  10   1.0000     -11.280752      -306.9649
  11   1.0000     -11.274539      -306.7958
  12   1.0000     -11.254829      -306.2595
  13   1.0000     -11.236480      -305.7602
  14   1.0000     -11.235679      -305.7384
  15   1.0000     -11.233596      -305.6817
  16   1.0000     -11.223990      -305.4203
  17   1.0000     -10.523277      -286.3529
  18   1.0000     -10.520531      -286.2782
  19   1.0000     -10.518787      -286.2307
  20   1.0000      -7.990092      -217.4215
  21   1.0000      -7.989373      -217.4019
  22   1.0000      -7.989309      -217.4002
  23   1.0000      -7.987441      -217.3493
  24   1.0000      -7.986613      -217.3268
  25   1.0000      -7.986560      -217.3253
  26   1.0000      -7.985561      -217.2982
  27   1.0000      -7.984914      -217.2806
  28   1.0000      -7.984878      -217.2796
  29   1.0000      -4.602956      -125.2528
  30   1.0000      -3.216127       -87.5153
  31   1.0000      -3.214253       -87.4643
  32   1.0000      -3.214171       -87.4620
  33   1.0000      -1.473994       -40.1094
  34   1.0000      -1.116063       -30.3696
  35   1.0000      -1.105288       -30.0764
  36   1.0000      -1.070363       -29.1261
  37   1.0000      -1.064582       -28.9687
  38   1.0000      -1.062181       -28.9034
  39   1.0000      -1.020655       -27.7734
  40   1.0000      -1.007616       -27.4186
  41   1.0000      -0.951941       -25.9036
  42   1.0000      -0.945916       -25.7397
  43   1.0000      -0.931770       -25.3547
  44   1.0000      -0.931614       -25.3505
  45   1.0000      -0.920538       -25.0491
  46   1.0000      -0.919890       -25.0315
  47   1.0000      -0.888956       -24.1897
  48   1.0000      -0.818760       -22.2796
  49   1.0000      -0.721825       -19.6419
  50   1.0000      -0.717326       -19.5194
  51   1.0000      -0.707977       -19.2650
  52   1.0000      -0.685880       -18.6637
  53   1.0000      -0.647389       -17.6163
  54   1.0000      -0.622146       -16.9295
  55   1.0000      -0.614457       -16.7202
  56   1.0000      -0.602867       -16.4048
  57   1.0000      -0.600270       -16.3342
  58   1.0000      -0.587030       -15.9739
  59   1.0000      -0.579576       -15.7711
  60   1.0000      -0.561261       -15.2727
  61   1.0000      -0.548815       -14.9340
  62   1.0000      -0.545998       -14.8574
  63   1.0000      -0.537070       -14.6144
  64   1.0000      -0.533849       -14.5268
  65   1.0000      -0.520931       -14.1753
  66   1.0000      -0.507641       -13.8136
  67   1.0000      -0.486435       -13.2366
  68   1.0000      -0.480059       -13.0631
  69   1.0000      -0.478340       -13.0163
  70   1.0000      -0.450095       -12.2477
  71   1.0000      -0.443475       -12.0676
  72   1.0000      -0.441722       -12.0199
  73   1.0000      -0.433231       -11.7888
  74   1.0000      -0.431985       -11.7549
  75   1.0000      -0.430859       -11.7243
  76   1.0000      -0.352523        -9.5926
  77   0.0000       0.012762         0.3473
  78   0.0000       0.024068         0.6549
  79   0.0000       0.025112         0.6833
  80   0.0000       0.031036         0.8445
  81   0.0000       0.039671         1.0795

                 SPIN DOWN ORBITALS
  NO   OCC          E(Eh)            E(eV)
   0   1.0000    -261.577080     -7117.8742
   1   1.0000    -104.795025     -2851.6176
   2   1.0000    -104.792242     -2851.5419
   3   1.0000    -104.790539     -2851.4955
   4   1.0000     -32.086324      -873.1133
   5   1.0000     -27.564299      -750.0627
   6   1.0000     -27.564129      -750.0581
   7   1.0000     -27.564075      -750.0566
   8   1.0000     -20.626230      -561.2683
   9   1.0000     -11.422685      -310.8271
  10   1.0000     -11.280655      -306.9622
  11   1.0000     -11.274538      -306.7958
  12   1.0000     -11.254890      -306.2611
  13   1.0000     -11.236404      -305.7581
  14   1.0000     -11.235669      -305.7381
  15   1.0000     -11.233603      -305.6819
  16   1.0000     -11.223996      -305.4205
  17   1.0000     -10.521662      -286.3090
  18   1.0000     -10.518856      -286.2326
  19   1.0000     -10.517104      -286.1850
  20   1.0000      -7.987600      -217.3536
  21   1.0000      -7.986803      -217.3320
  22   1.0000      -7.986765      -217.3309
  23   1.0000      -7.984701      -217.2748
  24   1.0000      -7.984062      -217.2574
  25   1.0000      -7.983964      -217.2547
  26   1.0000      -7.983106      -217.2314
  27   1.0000      -7.982163      -217.2057
  28   1.0000      -7.982086      -217.2036
  29   1.0000      -4.160976      -113.2259
  30   1.0000      -2.682529       -72.9953
  31   1.0000      -2.682413       -72.9922
  32   1.0000      -2.682064       -72.9827
  33   1.0000      -1.466232       -39.8982
  34   1.0000      -1.115759       -30.3614
  35   1.0000      -1.103244       -30.0208
  36   1.0000      -1.054513       -28.6948
  37   1.0000      -1.041847       -28.3501
  38   1.0000      -1.039062       -28.2743
  39   1.0000      -1.019611       -27.7450
  40   1.0000      -1.007477       -27.4149
  41   1.0000      -0.951647       -25.8956
  42   1.0000      -0.889028       -24.1917
  43   1.0000      -0.830217       -22.5914
  44   1.0000      -0.722126       -19.6500
  45   1.0000      -0.718448       -19.5500
  46   1.0000      -0.707287       -19.2463
  47   1.0000      -0.685386       -18.6503
  48   1.0000      -0.647356       -17.6155
  49   1.0000      -0.621563       -16.9136
  50   1.0000      -0.614358       -16.7175
  51   1.0000      -0.602788       -16.4027
  52   1.0000      -0.600177       -16.3316
  53   1.0000      -0.586746       -15.9662
  54   1.0000      -0.578323       -15.7370
  55   1.0000      -0.560261       -15.2455
  56   1.0000      -0.546669       -14.8756
  57   1.0000      -0.545063       -14.8319
  58   1.0000      -0.534199       -14.5363
  59   1.0000      -0.526921       -14.3383
  60   1.0000      -0.520775       -14.1710
  61   1.0000      -0.509015       -13.8510
  62   1.0000      -0.488933       -13.3045
  63   1.0000      -0.486702       -13.2438
  64   1.0000      -0.484415       -13.1816
  65   1.0000      -0.456723       -12.4281
  66   1.0000      -0.453972       -12.3532
  67   1.0000      -0.450772       -12.2661
  68   1.0000      -0.433947       -11.8083
  69   1.0000      -0.432533       -11.7698
  70   1.0000      -0.415986       -11.3196
  71   1.0000      -0.352197        -9.5838
  72   0.0000       0.012746         0.3468
  73   0.0000       0.024043         0.6542
  74   0.0000       0.025066         0.6821
  75   0.0000       0.030979         0.8430
  76   0.0000       0.039590         1.0773

E(0)                                       ...  -3028.472601788
E(0)                                       ...  -3028.472601788
E(CORR)(strong-pairs)                      ...     -2.865150629
E(CORR)(weak-pairs)                        ...     -0.035226526
E(CORR)(corrected)                         ...     -2.900377155
E(TOT)                                     ...  -3031.372978943
E(CCSD(T))                                 ...  -3031.490464580
FINAL SINGLE POINT ENERGY     -3031.490464580121

DIPOLE MOMENT
-------------
                                X             Y             Z
Electronic contribution:    -43.45678      -4.81140       1.95344
Nuclear contribution   :     46.44467       6.50525      -2.51079
                        -----------------------------------------
Total Dipole Moment    :      2.98789       1.69384      -0.55735
                        -----------------------------------------
Magnitude (a.u.)       :      3.47954
Magnitude (Debye)      :      8.84429

Rotational constants in cm-1:     0.018526     0.010703     0.010074
Rotational constants in MHz :   555.405354   320.864508   302.001503

                             ****ORCA TERMINATED NORMALLY****
TOTAL RUN TIME: 0 days 16 hours 56 minutes 47 seconds 587 msec
