                         Program Version 4.1.2  - RELEASE  -
|  1> ! aug-cc-pVTZ aug-cc-pVTZ/C DLPNO-CCSD(T1) TightSCF NormalPNO UNO MiniPrint AutoAux
|  2> %pal nproc 10 end
|  3> %maxcore 20000
|  4> %mdci
|  5>      density none
|  6> end
|  7>
|  8> * xyz 0 6
|  9>  O     -0.32568800     -0.10699400     -0.41967900
| 10>  C     -1.22767200     -1.06973200     -0.24049600
| 11>  C     -2.55490600     -0.37527500      0.75759500
| 12>  C     -2.98030700      0.70369600     -0.05120000
| 13>  C     -4.08635300      0.55119700     -1.03272300
| 14> Fe      1.50185000      0.17357100     -0.08905500
| 15> Cl      1.80283600      2.20494600     -0.88320800
| 16>  C     -2.23336500      1.96301600     -0.03948400
| 17> Cl      2.53406700     -1.45513900     -1.14944300
| 18> Cl      1.81181200      0.08397200      2.10070000
| 19>  H     -3.26907800     -1.20081700      0.76840200
| 20>  H     -2.66626800      2.74386800     -0.66635800
| 21>  H     -2.02707800      2.33425000      0.96862500
| 22>  H     -1.23108700      1.67083600     -0.43596400
| 23>  H     -4.91813900      1.18798400     -0.69412900
| 24>  H     -3.79743700      0.93419200     -2.01921100
| 25>  H     -4.45021100     -0.47361700     -1.11838600
| 26>  C     -1.97161600     -0.04391900      2.13156700
| 27>  H     -2.63251100      0.64614700      2.66658300
| 28>  H     -1.88186200     -0.94855000      2.73442600
| 29>  H     -0.98069400      0.40840500      2.05651000
| 30>  C     -0.74146200     -2.23591800      0.62961700
| 31>  H     -1.55000500     -2.92957200      0.87687100
| 32>  H      0.01005800     -2.76875400      0.03602000
| 33>  H     -0.25429100     -1.88820800      1.54018000
| 34>  C     -1.80105400     -1.56758300     -1.56744100
| 35>  H     -1.00865300     -2.13368100     -2.06761700
| 36>  H     -2.66285900     -2.22830500     -1.43023600
| 37>  H     -2.07021600     -0.73821400     -2.22429500
| 38> *
| 39>
| 40>
| 41>                          ****END OF INPUT****

CARTESIAN COORDINATES (ANGSTROEM)
---------------------------------
  O     -0.325688   -0.106994   -0.419679
  C     -1.227672   -1.069732   -0.240496
  C     -2.554906   -0.375275    0.757595
  C     -2.980307    0.703696   -0.051200
  C     -4.086353    0.551197   -1.032723
  Fe     1.501850    0.173571   -0.089055
  Cl     1.802836    2.204946   -0.883208
  C     -2.233365    1.963016   -0.039484
  Cl     2.534067   -1.455139   -1.149443
  Cl     1.811812    0.083972    2.100700
  H     -3.269078   -1.200817    0.768402
  H     -2.666268    2.743868   -0.666358
  H     -2.027078    2.334250    0.968625
  H     -1.231087    1.670836   -0.435964
  H     -4.918139    1.187984   -0.694129
  H     -3.797437    0.934192   -2.019211
  H     -4.450211   -0.473617   -1.118386
  C     -1.971616   -0.043919    2.131567
  H     -2.632511    0.646147    2.666583
  H     -1.881862   -0.948550    2.734426
  H     -0.980694    0.408405    2.056510
  C     -0.741462   -2.235918    0.629617
  H     -1.550005   -2.929572    0.876871
  H      0.010058   -2.768754    0.036020
  H     -0.254291   -1.888208    1.540180
  C     -1.801054   -1.567583   -1.567441
  H     -1.008653   -2.133681   -2.067617
  H     -2.662859   -2.228305   -1.430236
  H     -2.070216   -0.738214   -2.224295

ORBITAL ENERGIES
----------------
                 SPIN UP ORBITALS
  NO   OCC          E(Eh)            E(eV)
   0   1.0000    -261.543157     -7116.9511
   1   1.0000    -104.769960     -2850.9356
   2   1.0000    -104.768329     -2850.8912
   3   1.0000    -104.767054     -2850.8565
   4   1.0000     -32.211074      -876.5079
   5   1.0000     -27.687038      -753.4026
   6   1.0000     -27.686721      -753.3940
   7   1.0000     -27.686524      -753.3886
   8   1.0000     -20.545696      -559.0768
   9   1.0000     -11.384560      -309.7896
  10   1.0000     -11.363933      -309.2283
  11   1.0000     -11.300595      -307.5048
  12   1.0000     -11.287712      -307.1543
  13   1.0000     -11.273555      -306.7690
  14   1.0000     -11.252910      -306.2073
  15   1.0000     -11.249163      -306.1053
  16   1.0000     -11.239925      -305.8539
  17   1.0000     -10.496580      -285.6265
  18   1.0000     -10.494911      -285.5810
  19   1.0000     -10.493670      -285.5473
  20   1.0000      -7.963451      -216.6965
  21   1.0000      -7.962632      -216.6742
  22   1.0000      -7.962581      -216.6728
  23   1.0000      -7.961734      -216.6498
  24   1.0000      -7.961020      -216.6304
  25   1.0000      -7.960921      -216.6277
  26   1.0000      -7.960519      -216.6167
  27   1.0000      -7.959769      -216.5963
  28   1.0000      -7.959688      -216.5941
  29   1.0000      -4.566503      -124.2609
  30   1.0000      -3.179104       -86.5078
  31   1.0000      -3.178572       -86.4934
  32   1.0000      -3.178075       -86.4798
  33   1.0000      -1.382125       -37.6095
  34   1.0000      -1.195360       -32.5274
  35   1.0000      -1.083107       -29.4728
  36   1.0000      -1.046539       -28.4778
  37   1.0000      -1.041078       -28.3292
  38   1.0000      -1.035811       -28.1859
  39   1.0000      -1.033879       -28.1333
  40   1.0000      -1.016543       -27.6615
  41   1.0000      -0.972867       -26.4730
  42   1.0000      -0.931368       -25.3438
  43   1.0000      -0.909647       -24.7528
  44   1.0000      -0.896008       -24.3816
  45   1.0000      -0.895973       -24.3807
  46   1.0000      -0.887211       -24.1422
  47   1.0000      -0.886858       -24.1326
  48   1.0000      -0.794501       -21.6195
  49   1.0000      -0.769775       -20.9466
  50   1.0000      -0.708170       -19.2703
  51   1.0000      -0.695233       -18.9182
  52   1.0000      -0.672325       -18.2949
  53   1.0000      -0.655101       -17.8262
  54   1.0000      -0.651110       -17.7176
  55   1.0000      -0.633992       -17.2518
  56   1.0000      -0.605417       -16.4742
  57   1.0000      -0.601312       -16.3625
  58   1.0000      -0.590814       -16.0769
  59   1.0000      -0.583416       -15.8756
  60   1.0000      -0.574747       -15.6397
  61   1.0000      -0.563061       -15.3217
  62   1.0000      -0.556860       -15.1529
  63   1.0000      -0.537482       -14.6256
  64   1.0000      -0.536895       -14.6096
  65   1.0000      -0.518770       -14.1165
  66   1.0000      -0.504400       -13.7254
  67   1.0000      -0.466984       -12.7073
  68   1.0000      -0.457933       -12.4610
  69   1.0000      -0.443195       -12.0600
  70   1.0000      -0.426108       -11.5950
  71   1.0000      -0.420810       -11.4508
  72   1.0000      -0.416800       -11.3417
  73   1.0000      -0.409255       -11.1364
  74   1.0000      -0.407185       -11.0801
  75   1.0000      -0.406536       -11.0624
  76   1.0000      -0.403371       -10.9763
  77   0.0000       0.002720         0.0740
  78   0.0000       0.004192         0.1141
  79   0.0000       0.017719         0.4822
  80   0.0000       0.018668         0.5080
  81   0.0000       0.027698         0.7537

                 SPIN DOWN ORBITALS
  NO   OCC          E(Eh)            E(eV)
   0   1.0000    -261.539606     -7116.8545
   1   1.0000    -104.768582     -2850.8980
   2   1.0000    -104.766955     -2850.8538
   3   1.0000    -104.765625     -2850.8176
   4   1.0000     -32.048996      -872.0975
   5   1.0000     -27.527045      -749.0490
   6   1.0000     -27.526907      -749.0452
   7   1.0000     -27.526460      -749.0331
   8   1.0000     -20.540331      -558.9308
   9   1.0000     -11.384459      -309.7869
  10   1.0000     -11.363866      -309.2265
  11   1.0000     -11.300611      -307.5053
  12   1.0000     -11.287573      -307.1505
  13   1.0000     -11.273573      -306.7695
  14   1.0000     -11.252941      -306.2081
  15   1.0000     -11.249060      -306.1025
  16   1.0000     -11.239897      -305.8531
  17   1.0000     -10.495098      -285.5861
  18   1.0000     -10.493439      -285.5410
  19   1.0000     -10.492138      -285.5056
  20   1.0000      -7.960992      -216.6296
  21   1.0000      -7.960428      -216.6143
  22   1.0000      -7.960354      -216.6122
  23   1.0000      -7.959405      -216.5864
  24   1.0000      -7.958745      -216.5685
  25   1.0000      -7.958639      -216.5656
  26   1.0000      -7.958074      -216.5502
  27   1.0000      -7.957411      -216.5322
  28   1.0000      -7.957330      -216.5300
  29   1.0000      -4.124209      -112.2254
  30   1.0000      -2.646044       -72.0025
  31   1.0000      -2.645987       -72.0010
  32   1.0000      -2.645114       -71.9772
  33   1.0000      -1.368407       -37.2363
  34   1.0000      -1.194405       -32.5014
  35   1.0000      -1.080628       -29.4054
  36   1.0000      -1.045578       -28.4516
  37   1.0000      -1.026699       -27.9379
  38   1.0000      -1.016366       -27.6567
  39   1.0000      -1.015005       -27.6197
  40   1.0000      -1.013611       -27.5818
  41   1.0000      -0.972198       -26.4549
  42   1.0000      -0.930825       -25.3290
  43   1.0000      -0.802173       -21.8282
  44   1.0000      -0.775499       -21.1024
  45   1.0000      -0.708735       -19.2857
  46   1.0000      -0.694476       -18.8977
  47   1.0000      -0.672401       -18.2970
  48   1.0000      -0.657817       -17.9001
  49   1.0000      -0.649462       -17.6727
  50   1.0000      -0.633345       -17.2342
  51   1.0000      -0.605526       -16.4772
  52   1.0000      -0.601139       -16.3578
  53   1.0000      -0.589881       -16.0515
  54   1.0000      -0.583060       -15.8659
  55   1.0000      -0.573959       -15.6182
  56   1.0000      -0.562703       -15.3119
  57   1.0000      -0.556888       -15.1537
  58   1.0000      -0.537443       -14.6246
  59   1.0000      -0.535486       -14.5713
  60   1.0000      -0.514022       -13.9872
  61   1.0000      -0.497539       -13.5387
  62   1.0000      -0.465126       -12.6567
  63   1.0000      -0.460555       -12.5323
  64   1.0000      -0.451302       -12.2805
  65   1.0000      -0.431509       -11.7420
  66   1.0000      -0.429580       -11.6895
  67   1.0000      -0.427027       -11.6200
  68   1.0000      -0.425791       -11.5864
  69   1.0000      -0.406230       -11.0541
  70   1.0000      -0.394576       -10.7369
  71   1.0000      -0.393007       -10.6943
  72   0.0000       0.002747         0.0748
  73   0.0000       0.004097         0.1115
  74   0.0000       0.017716         0.4821
  75   0.0000       0.018648         0.5074
  76   0.0000       0.027705         0.7539

E(0)                                       ...  -3028.426489656
E(0)                                       ...  -3028.426489656
E(CORR)(strong-pairs)                      ...     -2.874511827
E(CORR)(weak-pairs)                        ...     -0.035550024
E(CORR)(corrected)                         ...     -2.910061851
E(TOT)                                     ...  -3031.336551507
E(CCSD(T))                                 ...  -3031.456325225
FINAL SINGLE POINT ENERGY     -3031.456325224669

DIPOLE MOMENT
-------------
                                X             Y             Z
Electronic contribution:     42.42591       6.74146      -1.25271
Nuclear contribution   :    -48.11699      -6.97852       1.18338
                        -----------------------------------------
Total Dipole Moment    :     -5.69108      -0.23706      -0.06933
                        -----------------------------------------
Magnitude (a.u.)       :      5.69643
Magnitude (Debye)      :     14.47918

Rotational constants in cm-1:     0.019911     0.010352     0.009886
Rotational constants in MHz :   596.906823   310.351434   296.368287

                             ****ORCA TERMINATED NORMALLY****
TOTAL RUN TIME: 0 days 21 hours 32 minutes 47 seconds 916 msec
