                         Program Version 4.1.2  - RELEASE  -
|  1> ! aug-cc-pVTZ aug-cc-pVTZ/C DLPNO-CCSD(T1) TightSCF NormalPNO UNO MiniPrint AutoAux
|  2> %pal nproc 10 end
|  3> %maxcore 20000
|  4> %mdci
|  5>      density none
|  6> end
|  7>
|  8> * xyz 0 6
|  9>  O     -0.26450500     -0.25622400     -0.74426300
| 10>  C     -1.14031800     -1.17502000     -0.57333800
| 11>  C     -2.78181800     -0.32154300      0.61706400
| 12>  C     -2.73143500      0.87201100     -0.05050700
| 13>  C     -3.50564600      1.10758400     -1.31084200
| 14> Fe      1.47362200      0.15891900     -0.03428200
| 15> Cl      1.97403100      2.06300800     -0.98609500
| 16>  C     -1.83684600      1.98791000      0.36837500
| 17> Cl      2.69059700     -1.56455900     -0.62621000
| 18> Cl      1.27175100      0.33507000      2.15425100
| 19>  H     -3.51727500     -1.04153900      0.26104200
| 20>  H     -2.33269700      2.95696600      0.24484900
| 21>  H     -1.46541500      1.89722400      1.38887500
| 22>  H     -0.96476300      1.99580100     -0.30411400
| 23>  H     -4.19370900      1.94890300     -1.15466300
| 24>  H     -2.83887600      1.40511700     -2.13107100
| 25>  H     -4.09465200      0.24045000     -1.61673100
| 26>  C     -2.38832900     -0.46800700      2.07236600
| 27>  H     -3.08381400      0.10750700      2.69566200
| 28>  H     -2.45390700     -1.50876900      2.39562300
| 29>  H     -1.37910000     -0.11037500      2.28488200
| 30>  C     -0.82097600     -2.28965600      0.39567500
| 31>  H     -1.68338100     -2.92415800      0.60711900
| 32>  H     -0.05621200     -2.89661300     -0.10874400
| 33>  H     -0.38151600     -1.91925700      1.32116800
| 34>  C     -1.88833300     -1.59053100     -1.82102600
| 35>  H     -1.20735300     -2.25570000     -2.36850100
| 36>  H     -2.80280900     -2.14608500     -1.60496900
| 37>  H     -2.09890000     -0.73790200     -2.46467500
| 38> *
| 39>
| 40>
| 41>                          ****END OF INPUT****

CARTESIAN COORDINATES (ANGSTROEM)
---------------------------------
  O     -0.264505   -0.256224   -0.744263
  C     -1.140318   -1.175020   -0.573338
  C     -2.781818   -0.321543    0.617064
  C     -2.731435    0.872011   -0.050507
  C     -3.505646    1.107584   -1.310842
  Fe     1.473622    0.158919   -0.034282
  Cl     1.974031    2.063008   -0.986095
  C     -1.836846    1.987910    0.368375
  Cl     2.690597   -1.564559   -0.626210
  Cl     1.271751    0.335070    2.154251
  H     -3.517275   -1.041539    0.261042
  H     -2.332697    2.956966    0.244849
  H     -1.465415    1.897224    1.388875
  H     -0.964763    1.995801   -0.304114
  H     -4.193709    1.948903   -1.154663
  H     -2.838876    1.405117   -2.131071
  H     -4.094652    0.240450   -1.616731
  C     -2.388329   -0.468007    2.072366
  H     -3.083814    0.107507    2.695662
  H     -2.453907   -1.508769    2.395623
  H     -1.379100   -0.110375    2.284882
  C     -0.820976   -2.289656    0.395675
  H     -1.683381   -2.924158    0.607119
  H     -0.056212   -2.896613   -0.108744
  H     -0.381516   -1.919257    1.321168
  C     -1.888333   -1.590531   -1.821026
  H     -1.207353   -2.255700   -2.368501
  H     -2.802809   -2.146085   -1.604969
  H     -2.098900   -0.737902   -2.464675

ORBITAL ENERGIES
----------------
                 SPIN UP ORBITALS
  NO   OCC          E(Eh)            E(eV)
   0   1.0000    -261.563430     -7117.5028
   1   1.0000    -104.785863     -2851.3683
   2   1.0000    -104.781992     -2851.2630
   3   1.0000    -104.780341     -2851.2180
   4   1.0000     -32.231261      -877.0572
   5   1.0000     -27.707517      -753.9599
   6   1.0000     -27.706737      -753.9386
   7   1.0000     -27.706550      -753.9336
   8   1.0000     -20.589654      -560.2730
   9   1.0000     -11.409773      -310.4757
  10   1.0000     -11.310026      -307.7614
  11   1.0000     -11.268144      -306.6218
  12   1.0000     -11.263889      -306.5060
  13   1.0000     -11.263401      -306.4927
  14   1.0000     -11.262459      -306.4671
  15   1.0000     -11.245793      -306.0136
  16   1.0000     -11.242357      -305.9201
  17   1.0000     -10.512549      -286.0610
  18   1.0000     -10.508657      -285.9551
  19   1.0000     -10.506951      -285.9087
  20   1.0000      -7.979405      -217.1306
  21   1.0000      -7.978596      -217.1086
  22   1.0000      -7.978575      -217.1081
  23   1.0000      -7.975508      -217.0246
  24   1.0000      -7.974759      -217.0042
  25   1.0000      -7.974698      -217.0026
  26   1.0000      -7.973766      -216.9772
  27   1.0000      -7.973071      -216.9583
  28   1.0000      -7.972998      -216.9563
  29   1.0000      -4.586424      -124.8029
  30   1.0000      -3.199394       -87.0599
  31   1.0000      -3.198065       -87.0238
  32   1.0000      -3.197836       -87.0175
  33   1.0000      -1.433013       -38.9943
  34   1.0000      -1.152714       -31.3669
  35   1.0000      -1.089559       -29.6484
  36   1.0000      -1.057702       -28.7815
  37   1.0000      -1.051911       -28.6239
  38   1.0000      -1.048804       -28.5394
  39   1.0000      -1.032410       -28.0933
  40   1.0000      -0.998594       -27.1731
  41   1.0000      -0.979396       -26.6507
  42   1.0000      -0.932176       -25.3658
  43   1.0000      -0.915608       -24.9150
  44   1.0000      -0.915510       -24.9123
  45   1.0000      -0.911853       -24.8128
  46   1.0000      -0.905633       -24.6435
  47   1.0000      -0.904978       -24.6257
  48   1.0000      -0.799927       -21.7671
  49   1.0000      -0.750665       -20.4266
  50   1.0000      -0.694341       -18.8940
  51   1.0000      -0.687109       -18.6972
  52   1.0000      -0.681781       -18.5522
  53   1.0000      -0.669330       -18.2134
  54   1.0000      -0.638727       -17.3806
  55   1.0000      -0.623211       -16.9584
  56   1.0000      -0.604611       -16.4523
  57   1.0000      -0.594522       -16.1778
  58   1.0000      -0.582154       -15.8412
  59   1.0000      -0.575431       -15.6583
  60   1.0000      -0.568317       -15.4647
  61   1.0000      -0.560121       -15.2417
  62   1.0000      -0.555965       -15.1286
  63   1.0000      -0.542074       -14.7506
  64   1.0000      -0.538781       -14.6610
  65   1.0000      -0.525329       -14.2949
  66   1.0000      -0.512797       -13.9539
  67   1.0000      -0.489039       -13.3074
  68   1.0000      -0.469688       -12.7809
  69   1.0000      -0.465082       -12.6555
  70   1.0000      -0.437490       -11.9047
  71   1.0000      -0.433174       -11.7873
  72   1.0000      -0.430899       -11.7254
  73   1.0000      -0.422489       -11.4965
  74   1.0000      -0.421005       -11.4561
  75   1.0000      -0.419929       -11.4269
  76   1.0000      -0.374474       -10.1900
  77   0.0000       0.010952         0.2980
  78   0.0000       0.021236         0.5779
  79   0.0000       0.022921         0.6237
  80   0.0000       0.028775         0.7830
  81   0.0000       0.036815         1.0018

                 SPIN DOWN ORBITALS
  NO   OCC          E(Eh)            E(eV)
   0   1.0000    -261.559866     -7117.4058
   1   1.0000    -104.784424     -2851.3291
   2   1.0000    -104.780485     -2851.2220
   3   1.0000    -104.778852     -2851.1775
   4   1.0000     -32.069211      -872.6476
   5   1.0000     -27.547154      -749.5962
   6   1.0000     -27.547087      -749.5943
   7   1.0000     -27.546849      -749.5879
   8   1.0000     -20.585513      -560.1603
   9   1.0000     -11.409684      -310.4733
  10   1.0000     -11.309774      -307.7546
  11   1.0000     -11.268033      -306.6188
  12   1.0000     -11.263923      -306.5069
  13   1.0000     -11.263386      -306.4923
  14   1.0000     -11.262548      -306.4695
  15   1.0000     -11.245840      -306.0149
  16   1.0000     -11.242347      -305.9198
  17   1.0000     -10.511007      -286.0191
  18   1.0000     -10.507047      -285.9113
  19   1.0000     -10.505364      -285.8655
  20   1.0000      -7.976896      -217.0624
  21   1.0000      -7.976267      -217.0453
  22   1.0000      -7.976210      -217.0437
  23   1.0000      -7.972964      -216.9554
  24   1.0000      -7.972259      -216.9362
  25   1.0000      -7.972173      -216.9339
  26   1.0000      -7.971333      -216.9110
  27   1.0000      -7.970550      -216.8897
  28   1.0000      -7.970458      -216.8872
  29   1.0000      -4.144163      -112.7684
  30   1.0000      -2.665833       -72.5410
  31   1.0000      -2.665788       -72.5398
  32   1.0000      -2.665135       -72.5220
  33   1.0000      -1.422553       -38.7096
  34   1.0000      -1.152027       -31.3483
  35   1.0000      -1.086801       -29.5733
  36   1.0000      -1.042746       -28.3746
  37   1.0000      -1.032618       -28.0990
  38   1.0000      -1.029732       -28.0204
  39   1.0000      -1.026987       -27.9457
  40   1.0000      -0.997924       -27.1549
  41   1.0000      -0.979280       -26.6476
  42   1.0000      -0.912303       -24.8250
  43   1.0000      -0.814196       -22.1554
  44   1.0000      -0.750823       -20.4309
  45   1.0000      -0.697199       -18.9717
  46   1.0000      -0.686422       -18.6785
  47   1.0000      -0.680877       -18.5276
  48   1.0000      -0.669082       -18.2067
  49   1.0000      -0.638659       -17.3788
  50   1.0000      -0.622678       -16.9439
  51   1.0000      -0.604031       -16.4365
  52   1.0000      -0.594475       -16.1765
  53   1.0000      -0.581916       -15.8347
  54   1.0000      -0.574204       -15.6249
  55   1.0000      -0.568143       -15.4600
  56   1.0000      -0.560075       -15.2404
  57   1.0000      -0.555742       -15.1225
  58   1.0000      -0.540801       -14.7159
  59   1.0000      -0.536642       -14.6028
  60   1.0000      -0.515289       -14.0217
  61   1.0000      -0.512062       -13.9339
  62   1.0000      -0.488891       -13.3034
  63   1.0000      -0.476079       -12.9548
  64   1.0000      -0.473369       -12.8810
  65   1.0000      -0.446451       -12.1485
  66   1.0000      -0.442680       -12.0459
  67   1.0000      -0.440235       -11.9794
  68   1.0000      -0.425668       -11.5830
  69   1.0000      -0.420244       -11.4354
  70   1.0000      -0.406158       -11.0521
  71   1.0000      -0.372611       -10.1393
  72   0.0000       0.010940         0.2977
  73   0.0000       0.021214         0.5772
  74   0.0000       0.022907         0.6233
  75   0.0000       0.028530         0.7764
  76   0.0000       0.036105         0.9825

E(0)                                       ...  -3028.439944598
E(0)                                       ...  -3028.439944598
E(CORR)(strong-pairs)                      ...     -2.872774149
E(CORR)(weak-pairs)                        ...     -0.036630478
E(CORR)(corrected)                         ...     -2.909404627
E(TOT)                                     ...  -3031.349349225
E(CCSD(T))                                 ...  -3031.469097376
FINAL SINGLE POINT ENERGY     -3031.469097376496

DIPOLE MOMENT
-------------
                                X             Y             Z
Electronic contribution:     42.75877       5.61040       0.69926
Nuclear contribution   :    -46.91383      -6.54523      -1.16603
                        -----------------------------------------
Total Dipole Moment    :     -4.15506      -0.93484      -0.46676
                        -----------------------------------------
Magnitude (a.u.)       :      4.28443
Magnitude (Debye)      :     10.89015

Rotational constants in cm-1:     0.019213     0.010792     0.010177
Rotational constants in MHz :   576.003869   323.543897   305.084136

                             ****ORCA TERMINATED NORMALLY****
TOTAL RUN TIME: 0 days 18 hours 36 minutes 54 seconds 149 msec
