                         Program Version 4.1.2  - RELEASE  -
|  1> ! aug-cc-pVTZ aug-cc-pVTZ/C DLPNO-CCSD(T1) TightSCF NormalPNO UNO MiniPrint AutoAux
|  2> %pal nproc 10 end
|  3> %maxcore 20000
|  4> %mdci
|  5>      density none
|  6> end
|  7>
|  8> * xyz 0 6
|  9>  O     -0.35583100     -0.12146800     -0.46005100
| 10>  C     -1.25650700     -1.11645900     -0.31024500
| 11>  C     -2.53048100     -0.46799900      0.60980200
| 12>  C     -2.76318300      0.77454700     -0.05778200
| 13>  C     -3.71834800      0.86606700     -1.19039100
| 14> Fe      1.44217200      0.16861200     -0.07285200
| 15> Cl      1.66648200      2.26307100     -0.75830700
| 16>  C     -2.00629700      1.97190700      0.27712500
| 17> Cl      2.60700100     -1.35634900     -1.14829500
| 18> Cl      1.65601600      0.02314700      2.13297500
| 19>  H     -3.34761300     -1.17279200      0.43459700
| 20>  H     -2.38755000      2.88390700     -0.18459600
| 21>  H     -1.82090700      2.09861400      1.34581000
| 22>  H     -1.00284500      1.74285900     -0.15663800
| 23>  H     -4.53539700      1.53313800     -0.87507300
| 24>  H     -3.24942100      1.35715400     -2.05290100
| 25>  H     -4.14406700     -0.09318000     -1.48390300
| 26>  C     -2.13474800     -0.37486100      2.08707500
| 27>  H     -2.84190000      0.26076200      2.63020000
| 28>  H     -2.16138400     -1.36460000      2.54544900
| 29>  H     -1.12773600      0.02910000      2.21408200
| 30>  C     -0.72976100     -2.31641800      0.49162300
| 31>  H     -1.51713700     -3.05067500      0.68859200
| 32>  H      0.04476300     -2.78880500     -0.12190900
| 33>  H     -0.26677500     -2.00929400      1.42906700
| 34>  C     -1.77354400     -1.58789100     -1.67588400
| 35>  H     -0.95136600     -2.11666900     -2.16710600
| 36>  H     -2.62252700     -2.27422900     -1.58796600
| 37>  H     -2.04224600     -0.74860100     -2.31940300
| 38> *
| 39>
| 40>
| 41>                          ****END OF INPUT****

CARTESIAN COORDINATES (ANGSTROEM)
---------------------------------
  O     -0.355831   -0.121468   -0.460051
  C     -1.256507   -1.116459   -0.310245
  C     -2.530481   -0.467999    0.609802
  C     -2.763183    0.774547   -0.057782
  C     -3.718348    0.866067   -1.190391
  Fe     1.442172    0.168612   -0.072852
  Cl     1.666482    2.263071   -0.758307
  C     -2.006297    1.971907    0.277125
  Cl     2.607001   -1.356349   -1.148295
  Cl     1.656016    0.023147    2.132975
  H     -3.347613   -1.172792    0.434597
  H     -2.387550    2.883907   -0.184596
  H     -1.820907    2.098614    1.345810
  H     -1.002845    1.742859   -0.156638
  H     -4.535397    1.533138   -0.875073
  H     -3.249421    1.357154   -2.052901
  H     -4.144067   -0.093180   -1.483903
  C     -2.134748   -0.374861    2.087075
  H     -2.841900    0.260762    2.630200
  H     -2.161384   -1.364600    2.545449
  H     -1.127736    0.029100    2.214082
  C     -0.729761   -2.316418    0.491623
  H     -1.517137   -3.050675    0.688592
  H      0.044763   -2.788805   -0.121909
  H     -0.266775   -2.009294    1.429067
  C     -1.773544   -1.587891   -1.675884
  H     -0.951366   -2.116669   -2.167106
  H     -2.622527   -2.274229   -1.587966
  H     -2.042246   -0.748601   -2.319403

ORBITAL ENERGIES
----------------
                 SPIN UP ORBITALS
  NO   OCC          E(Eh)            E(eV)
   0   1.0000    -261.540388     -7116.8758
   1   1.0000    -104.768887     -2850.9064
   2   1.0000    -104.768399     -2850.8931
   3   1.0000    -104.766316     -2850.8364
   4   1.0000     -32.208323      -876.4330
   5   1.0000     -27.684152      -753.3241
   6   1.0000     -27.684095      -753.3225
   7   1.0000     -27.683787      -753.3141
   8   1.0000     -20.534764      -558.7793
   9   1.0000     -11.400050      -310.2111
  10   1.0000     -11.348298      -308.8029
  11   1.0000     -11.304696      -307.6164
  12   1.0000     -11.289990      -307.2162
  13   1.0000     -11.275354      -306.8180
  14   1.0000     -11.254469      -306.2497
  15   1.0000     -11.243198      -305.9430
  16   1.0000     -11.233670      -305.6837
  17   1.0000     -10.495465      -285.5961
  18   1.0000     -10.494919      -285.5813
  19   1.0000     -10.492897      -285.5262
  20   1.0000      -7.962350      -216.6665
  21   1.0000      -7.961755      -216.6504
  22   1.0000      -7.961509      -216.6437
  23   1.0000      -7.961447      -216.6420
  24   1.0000      -7.961006      -216.6300
  25   1.0000      -7.960910      -216.6274
  26   1.0000      -7.959707      -216.5946
  27   1.0000      -7.959004      -216.5755
  28   1.0000      -7.958925      -216.5734
  29   1.0000      -4.563827      -124.1880
  30   1.0000      -3.176298       -86.4315
  31   1.0000      -3.176036       -86.4243
  32   1.0000      -3.175448       -86.4083
  33   1.0000      -1.371114       -37.3099
  34   1.0000      -1.201519       -32.6950
  35   1.0000      -1.089370       -29.6433
  36   1.0000      -1.046228       -28.4693
  37   1.0000      -1.039818       -28.2949
  38   1.0000      -1.034607       -28.1531
  39   1.0000      -1.032810       -28.1042
  40   1.0000      -1.019147       -27.7324
  41   1.0000      -0.967976       -26.3400
  42   1.0000      -0.934392       -25.4261
  43   1.0000      -0.905579       -24.6420
  44   1.0000      -0.893459       -24.3123
  45   1.0000      -0.893362       -24.3096
  46   1.0000      -0.885197       -24.0874
  47   1.0000      -0.884934       -24.0803
  48   1.0000      -0.800573       -21.7847
  49   1.0000      -0.767833       -20.8938
  50   1.0000      -0.713700       -19.4208
  51   1.0000      -0.697865       -18.9899
  52   1.0000      -0.678063       -18.4510
  53   1.0000      -0.648262       -17.6401
  54   1.0000      -0.646953       -17.6045
  55   1.0000      -0.631386       -17.1809
  56   1.0000      -0.609083       -16.5740
  57   1.0000      -0.601876       -16.3779
  58   1.0000      -0.590027       -16.0554
  59   1.0000      -0.586481       -15.9590
  60   1.0000      -0.570874       -15.5343
  61   1.0000      -0.562174       -15.2975
  62   1.0000      -0.555606       -15.1188
  63   1.0000      -0.537453       -14.6248
  64   1.0000      -0.529673       -14.4131
  65   1.0000      -0.517709       -14.0876
  66   1.0000      -0.501789       -13.6544
  67   1.0000      -0.464608       -12.6426
  68   1.0000      -0.458917       -12.4878
  69   1.0000      -0.440802       -11.9948
  70   1.0000      -0.428533       -11.6610
  71   1.0000      -0.419741       -11.4217
  72   1.0000      -0.415328       -11.3017
  73   1.0000      -0.409824       -11.1519
  74   1.0000      -0.407117       -11.0782
  75   1.0000      -0.406546       -11.0627
  76   1.0000      -0.405907       -11.0453
  77   0.0000      -0.000780        -0.0212
  78   0.0000       0.002550         0.0694
  79   0.0000       0.017546         0.4775
  80   0.0000       0.018584         0.5057
  81   0.0000       0.028030         0.7627

                 SPIN DOWN ORBITALS
  NO   OCC          E(Eh)            E(eV)
   0   1.0000    -261.536840     -7116.7792
   1   1.0000    -104.767539     -2850.8697
   2   1.0000    -104.767076     -2850.8571
   3   1.0000    -104.764909     -2850.7981
   4   1.0000     -32.046283      -872.0237
   5   1.0000     -27.524392      -748.9768
   6   1.0000     -27.524180      -748.9710
   7   1.0000     -27.523671      -748.9572
   8   1.0000     -20.528829      -558.6178
   9   1.0000     -11.400052      -310.2112
  10   1.0000     -11.348183      -308.7998
  11   1.0000     -11.304697      -307.6165
  12   1.0000     -11.289828      -307.2118
  13   1.0000     -11.275375      -306.8185
  14   1.0000     -11.254492      -306.2503
  15   1.0000     -11.243094      -305.9401
  16   1.0000     -11.233626      -305.6825
  17   1.0000     -10.494013      -285.5566
  18   1.0000     -10.493500      -285.5426
  19   1.0000     -10.491390      -285.4852
  20   1.0000      -7.959891      -216.5996
  21   1.0000      -7.959437      -216.5873
  22   1.0000      -7.959382      -216.5858
  23   1.0000      -7.959304      -216.5837
  24   1.0000      -7.958863      -216.5717
  25   1.0000      -7.958757      -216.5688
  26   1.0000      -7.957370      -216.5310
  27   1.0000      -7.956644      -216.5113
  28   1.0000      -7.956574      -216.5094
  29   1.0000      -4.121651      -112.1558
  30   1.0000      -2.643566       -71.9351
  31   1.0000      -2.643478       -71.9327
  32   1.0000      -2.642572       -71.9080
  33   1.0000      -1.356056       -36.9002
  34   1.0000      -1.200448       -32.6658
  35   1.0000      -1.086843       -29.5745
  36   1.0000      -1.045185       -28.4409
  37   1.0000      -1.025711       -27.9110
  38   1.0000      -1.018576       -27.7169
  39   1.0000      -1.014573       -27.6079
  40   1.0000      -1.013019       -27.5656
  41   1.0000      -0.967172       -26.3181
  42   1.0000      -0.933609       -25.4048
  43   1.0000      -0.805493       -21.9186
  44   1.0000      -0.775337       -21.0980
  45   1.0000      -0.714455       -19.4413
  46   1.0000      -0.697168       -18.9709
  47   1.0000      -0.678314       -18.4579
  48   1.0000      -0.650143       -17.6913
  49   1.0000      -0.646246       -17.5852
  50   1.0000      -0.630133       -17.1468
  51   1.0000      -0.609178       -16.5766
  52   1.0000      -0.601997       -16.3812
  53   1.0000      -0.589424       -16.0390
  54   1.0000      -0.585688       -15.9374
  55   1.0000      -0.569390       -15.4939
  56   1.0000      -0.562006       -15.2930
  57   1.0000      -0.555188       -15.1074
  58   1.0000      -0.537036       -14.6135
  59   1.0000      -0.527828       -14.3629
  60   1.0000      -0.513168       -13.9640
  61   1.0000      -0.495956       -13.4956
  62   1.0000      -0.463257       -12.6059
  63   1.0000      -0.460255       -12.5242
  64   1.0000      -0.446515       -12.1503
  65   1.0000      -0.434604       -11.8262
  66   1.0000      -0.430241       -11.7075
  67   1.0000      -0.426863       -11.6155
  68   1.0000      -0.425736       -11.5849
  69   1.0000      -0.405649       -11.0383
  70   1.0000      -0.396078       -10.7778
  71   1.0000      -0.393012       -10.6944
  72   0.0000      -0.000913        -0.0248
  73   0.0000       0.002526         0.0687
  74   0.0000       0.017543         0.4774
  75   0.0000       0.018570         0.5053
  76   0.0000       0.028049         0.7632

E(0)                                       ...  -3028.424864673
E(0)                                       ...  -3028.424864673
E(CORR)(strong-pairs)                      ...     -2.872860196
E(CORR)(weak-pairs)                        ...     -0.035475490
E(CORR)(corrected)                         ...     -2.908335686
E(TOT)                                     ...  -3031.333200359
E(CCSD(T))                                 ...  -3031.451685779
FINAL SINGLE POINT ENERGY     -3031.451685779474

DIPOLE MOMENT
-------------
                                X             Y             Z
Electronic contribution:     40.59464       7.36386      -0.43550
Nuclear contribution   :    -46.23069      -7.41018       0.27549
                        -----------------------------------------
Total Dipole Moment    :     -5.63605      -0.04632      -0.16001
                        -----------------------------------------
Magnitude (a.u.)       :      5.63851
Magnitude (Debye)      :     14.33195

Rotational constants in cm-1:     0.019422     0.010987     0.010361
Rotational constants in MHz :   582.246113   329.396924   310.604925

                             ****ORCA TERMINATED NORMALLY****
TOTAL RUN TIME: 0 days 21 hours 3 minutes 55 seconds 823 msec
