                         Program Version 4.1.2  - RELEASE  -
|  1> ! aug-cc-pVTZ aug-cc-pVTZ/C DLPNO-CCSD(T1) TightSCF NormalPNO UNO MiniPrint AutoAux
|  2> %pal nproc 10 end
|  3> %maxcore 20000
|  4> %mdci
|  5>      density none
|  6> end
|  7>
|  8> * xyz 0 6
|  9>  O     -0.31557500     -0.13543300     -0.65812900
| 10>  C     -1.20509100     -1.05755600     -0.57423000
| 11>  C     -3.09495000     -0.05060700      0.11641500
| 12>  C     -2.34892300      1.04938100     -0.18727300
| 13>  C     -2.35048800      1.65180700     -1.55665700
| 14> Fe      1.45208400      0.07574900      0.04648000
| 15> Cl      2.07440300      2.01308100     -0.76128100
| 16>  C     -1.56282000      1.80761000      0.83527800
| 17> Cl      2.49037300     -1.69745100     -0.73000800
| 18> Cl      1.32351700      0.04778400      2.24838200
| 19>  H     -3.73495400     -0.44256300     -0.67103300
| 20>  H     -2.20864600      2.60092200      1.23904700
| 21>  H     -1.22774200      1.19588500      1.67317400
| 22>  H     -0.69309500      2.29405400      0.38579400
| 23>  H     -2.66431000      2.70068100     -1.47632900
| 24>  H     -1.33437600      1.65783900     -1.96686000
| 25>  H     -3.03027400      1.14595600     -2.24610400
| 26>  C     -3.45818300     -0.49129500      1.51100900
| 27>  H     -4.36451900      0.03873500      1.83287400
| 28>  H     -3.68446700     -1.56036000      1.55291600
| 29>  H     -2.67907200     -0.27762600      2.24598000
| 30>  C     -1.09466600     -2.05194100      0.54863600
| 31>  H     -1.96712700     -2.70090400      0.62623500
| 32>  H     -0.22319100     -2.67396500      0.29543000
| 33>  H     -0.87882700     -1.57157000      1.50305000
| 34>  C     -1.74207800     -1.57539300     -1.88509300
| 35>  H     -0.93672300     -2.19676700     -2.30169300
| 36>  H     -2.63041900     -2.19718600     -1.76121000
| 37>  H     -1.92963000     -0.76920700     -2.59379400
| 38> *
| 39>
| 40>
| 41>                          ****END OF INPUT****

CARTESIAN COORDINATES (ANGSTROEM)
---------------------------------
  O     -0.315575   -0.135433   -0.658129
  C     -1.205091   -1.057556   -0.574230
  C     -3.094950   -0.050607    0.116415
  C     -2.348923    1.049381   -0.187273
  C     -2.350488    1.651807   -1.556657
  Fe     1.452084    0.075749    0.046480
  Cl     2.074403    2.013081   -0.761281
  C     -1.562820    1.807610    0.835278
  Cl     2.490373   -1.697451   -0.730008
  Cl     1.323517    0.047784    2.248382
  H     -3.734954   -0.442563   -0.671033
  H     -2.208646    2.600922    1.239047
  H     -1.227742    1.195885    1.673174
  H     -0.693095    2.294054    0.385794
  H     -2.664310    2.700681   -1.476329
  H     -1.334376    1.657839   -1.966860
  H     -3.030274    1.145956   -2.246104
  C     -3.458183   -0.491295    1.511009
  H     -4.364519    0.038735    1.832874
  H     -3.684467   -1.560360    1.552916
  H     -2.679072   -0.277626    2.245980
  C     -1.094666   -2.051941    0.548636
  H     -1.967127   -2.700904    0.626235
  H     -0.223191   -2.673965    0.295430
  H     -0.878827   -1.571570    1.503050
  C     -1.742078   -1.575393   -1.885093
  H     -0.936723   -2.196767   -2.301693
  H     -2.630419   -2.197186   -1.761210
  H     -1.929630   -0.769207   -2.593794

ORBITAL ENERGIES
----------------
                 SPIN UP ORBITALS
  NO   OCC          E(Eh)            E(eV)
   0   1.0000    -261.564291     -7117.5262
   1   1.0000    -104.785248     -2851.3516
   2   1.0000    -104.783084     -2851.2927
   3   1.0000    -104.782461     -2851.2757
   4   1.0000     -32.232104      -877.0802
   5   1.0000     -27.708347      -753.9825
   6   1.0000     -27.707583      -753.9617
   7   1.0000     -27.707432      -753.9576
   8   1.0000     -20.583928      -560.1172
   9   1.0000     -11.414324      -310.5995
  10   1.0000     -11.308501      -307.7200
  11   1.0000     -11.269628      -306.6622
  12   1.0000     -11.263970      -306.5082
  13   1.0000     -11.261134      -306.4310
  14   1.0000     -11.253198      -306.2151
  15   1.0000     -11.252151      -306.1866
  16   1.0000     -11.245180      -305.9969
  17   1.0000     -10.511904      -286.0434
  18   1.0000     -10.509694      -285.9833
  19   1.0000     -10.509038      -285.9655
  20   1.0000      -7.978766      -217.1133
  21   1.0000      -7.977962      -217.0914
  22   1.0000      -7.977924      -217.0903
  23   1.0000      -7.976563      -217.0533
  24   1.0000      -7.975840      -217.0336
  25   1.0000      -7.975791      -217.0323
  26   1.0000      -7.975709      -217.0301
  27   1.0000      -7.975155      -217.0150
  28   1.0000      -7.975085      -217.0131
  29   1.0000      -4.587301      -124.8268
  30   1.0000      -3.200270       -87.0838
  31   1.0000      -3.198993       -87.0490
  32   1.0000      -3.198687       -87.0407
  33   1.0000      -1.435939       -39.0739
  34   1.0000      -1.151601       -31.3366
  35   1.0000      -1.093122       -29.7454
  36   1.0000      -1.057669       -28.7806
  37   1.0000      -1.052254       -28.6333
  38   1.0000      -1.050124       -28.5753
  39   1.0000      -1.032833       -28.1048
  40   1.0000      -1.003694       -27.3119
  41   1.0000      -0.975612       -26.5477
  42   1.0000      -0.933578       -25.4040
  43   1.0000      -0.916649       -24.9433
  44   1.0000      -0.916519       -24.9398
  45   1.0000      -0.914588       -24.8872
  46   1.0000      -0.906465       -24.6662
  47   1.0000      -0.906235       -24.6599
  48   1.0000      -0.799589       -21.7579
  49   1.0000      -0.747691       -20.3457
  50   1.0000      -0.698084       -18.9958
  51   1.0000      -0.693931       -18.8828
  52   1.0000      -0.686253       -18.6739
  53   1.0000      -0.667642       -18.1675
  54   1.0000      -0.637015       -17.3341
  55   1.0000      -0.619970       -16.8702
  56   1.0000      -0.603444       -16.4205
  57   1.0000      -0.598897       -16.2968
  58   1.0000      -0.582790       -15.8585
  59   1.0000      -0.576144       -15.6777
  60   1.0000      -0.568677       -15.4745
  61   1.0000      -0.564011       -15.3475
  62   1.0000      -0.550987       -14.9931
  63   1.0000      -0.548641       -14.9293
  64   1.0000      -0.541349       -14.7309
  65   1.0000      -0.522750       -14.2248
  66   1.0000      -0.512119       -13.9355
  67   1.0000      -0.490424       -13.3451
  68   1.0000      -0.470864       -12.8129
  69   1.0000      -0.464699       -12.6451
  70   1.0000      -0.438658       -11.9365
  71   1.0000      -0.433389       -11.7931
  72   1.0000      -0.431954       -11.7541
  73   1.0000      -0.423504       -11.5241
  74   1.0000      -0.421836       -11.4787
  75   1.0000      -0.421525       -11.4703
  76   1.0000      -0.371058       -10.0970
  77   0.0000       0.011678         0.3178
  78   0.0000       0.022220         0.6046
  79   0.0000       0.022999         0.6258
  80   0.0000       0.030287         0.8241
  81   0.0000       0.038985         1.0608

                 SPIN DOWN ORBITALS
  NO   OCC          E(Eh)            E(eV)
   0   1.0000    -261.560733     -7117.4294
   1   1.0000    -104.783809     -2851.3124
   2   1.0000    -104.781596     -2851.2522
   3   1.0000    -104.780997     -2851.2359
   4   1.0000     -32.070071      -872.6710
   5   1.0000     -27.548018      -749.6197
   6   1.0000     -27.547958      -749.6180
   7   1.0000     -27.547684      -749.6106
   8   1.0000     -20.579678      -560.0015
   9   1.0000     -11.414194      -310.5960
  10   1.0000     -11.308488      -307.7196
  11   1.0000     -11.269524      -306.6593
  12   1.0000     -11.263953      -306.5077
  13   1.0000     -11.260942      -306.4258
  14   1.0000     -11.253193      -306.2149
  15   1.0000     -11.252171      -306.1871
  16   1.0000     -11.245205      -305.9976
  17   1.0000     -10.510362      -286.0015
  18   1.0000     -10.508103      -285.9400
  19   1.0000     -10.507479      -285.9230
  20   1.0000      -7.976258      -217.0450
  21   1.0000      -7.975624      -217.0278
  22   1.0000      -7.975559      -217.0260
  23   1.0000      -7.973998      -216.9835
  24   1.0000      -7.973461      -216.9689
  25   1.0000      -7.973349      -216.9658
  26   1.0000      -7.973253      -216.9632
  27   1.0000      -7.972674      -216.9475
  28   1.0000      -7.972586      -216.9451
  29   1.0000      -4.145041      -112.7923
  30   1.0000      -2.666671       -72.5638
  31   1.0000      -2.666632       -72.5628
  32   1.0000      -2.666116       -72.5487
  33   1.0000      -1.425172       -38.7809
  34   1.0000      -1.150910       -31.3179
  35   1.0000      -1.090476       -29.6734
  36   1.0000      -1.042719       -28.3738
  37   1.0000      -1.032468       -28.0949
  38   1.0000      -1.030621       -28.0446
  39   1.0000      -1.028753       -27.9938
  40   1.0000      -1.002867       -27.2894
  41   1.0000      -0.975518       -26.5452
  42   1.0000      -0.915688       -24.9171
  43   1.0000      -0.813480       -22.1359
  44   1.0000      -0.747750       -20.3473
  45   1.0000      -0.700415       -19.0593
  46   1.0000      -0.694514       -18.8987
  47   1.0000      -0.684619       -18.6294
  48   1.0000      -0.667378       -18.1603
  49   1.0000      -0.636929       -17.3317
  50   1.0000      -0.619636       -16.8612
  51   1.0000      -0.602933       -16.4066
  52   1.0000      -0.598848       -16.2955
  53   1.0000      -0.582481       -15.8501
  54   1.0000      -0.575779       -15.6678
  55   1.0000      -0.568460       -15.4686
  56   1.0000      -0.563785       -15.3414
  57   1.0000      -0.550361       -14.9761
  58   1.0000      -0.546586       -14.8734
  59   1.0000      -0.539637       -14.6843
  60   1.0000      -0.513567       -13.9749
  61   1.0000      -0.512118       -13.9354
  62   1.0000      -0.489185       -13.3114
  63   1.0000      -0.475850       -12.9485
  64   1.0000      -0.474750       -12.9186
  65   1.0000      -0.446246       -12.1430
  66   1.0000      -0.443185       -12.0597
  67   1.0000      -0.441105       -12.0031
  68   1.0000      -0.426373       -11.6022
  69   1.0000      -0.421753       -11.4765
  70   1.0000      -0.407195       -11.0803
  71   1.0000      -0.369481       -10.0541
  72   0.0000       0.011671         0.3176
  73   0.0000       0.022194         0.6039
  74   0.0000       0.022976         0.6252
  75   0.0000       0.030291         0.8243
  76   0.0000       0.038929         1.0593

E(0)                                       ...  -3028.434247367
E(0)                                       ...  -3028.434247367
E(CORR)(strong-pairs)                      ...     -2.872211591
E(CORR)(weak-pairs)                        ...     -0.036539749
E(CORR)(corrected)                         ...     -2.908751340
E(TOT)                                     ...  -3031.342998708
E(CCSD(T))                                 ...  -3031.462547583
FINAL SINGLE POINT ENERGY     -3031.462547582688

DIPOLE MOMENT
-------------
                                X             Y             Z
Electronic contribution:     42.40926       2.77945       2.26339
Nuclear contribution   :    -46.41530      -3.43783      -2.82688
                        -----------------------------------------
Total Dipole Moment    :     -4.00604      -0.65837      -0.56349
                        -----------------------------------------
Magnitude (a.u.)       :      4.09870
Magnitude (Debye)      :     10.41806

Rotational constants in cm-1:     0.019375     0.011112     0.010443
Rotational constants in MHz :   580.850395   333.120119   313.087198

                             ****ORCA TERMINATED NORMALLY****
TOTAL RUN TIME: 0 days 19 hours 22 minutes 15 seconds 772 msec
