                         Program Version 4.1.2  - RELEASE  -
|  1> ! aug-cc-pVTZ aug-cc-pVTZ/C DLPNO-CCSD(T1) TightSCF NormalPNO UNO MiniPrint AutoAux
|  2> %pal nproc 10 end
|  3> %maxcore 20000
|  4> %mdci
|  5>      density none
|  6> end
|  7>
|  8> * xyz 0 6
|  9>  O     -0.35763200     -0.27332900     -0.59722800
| 10>  C     -1.46352600     -1.17360900     -0.34036000
| 11>  C     -2.69826500     -0.15626400     -0.31963400
| 12>  C     -1.97476100      1.17246500     -0.23037700
| 13>  C     -1.82079700      2.01989400     -1.42877800
| 14> Fe      1.38230600      0.01696100      0.00843200
| 15> Cl      1.78762700      2.03119200     -0.84583900
| 16>  C     -1.62446600      1.75941300      1.07898600
| 17> Cl      2.61288600     -1.64980200     -0.70724500
| 18> Cl      1.34026200      0.16045100      2.22340800
| 19>  H     -3.17709900     -0.20317800     -1.30267800
| 20>  H     -2.52267800      2.29786700      1.42685700
| 21>  H     -1.37588300      1.01088500      1.83148800
| 22>  H     -0.80918400      2.48120400      0.99170700
| 23>  H     -2.48853400      2.88997200     -1.31787500
| 24>  H     -0.79546000      2.40977900     -1.47007600
| 25>  H     -2.06315600      1.49388300     -2.35225200
| 26>  C     -3.76415400     -0.38273000      0.75519700
| 27>  H     -4.56285600      0.36357800      0.68077300
| 28>  H     -4.22011200     -1.36703700      0.61291500
| 29>  H     -3.35310700     -0.34711900      1.76667700
| 30>  C     -1.25479900     -1.92493000      0.96923600
| 31>  H     -2.08442800     -2.61111900      1.16681500
| 32>  H     -0.33712400     -2.51691700      0.88915100
| 33>  H     -1.13378500     -1.25492600      1.82235900
| 34>  C     -1.56636200     -2.14132500     -1.51225500
| 35>  H     -0.65725700     -2.74918200     -1.55978200
| 36>  H     -2.42967000     -2.80793900     -1.40062600
| 37>  H     -1.65898100     -1.59288800     -2.45446700
| 38> *
| 39>
| 40>
| 41>                          ****END OF INPUT****

CARTESIAN COORDINATES (ANGSTROEM)
---------------------------------
  O     -0.357632   -0.273329   -0.597228
  C     -1.463526   -1.173609   -0.340360
  C     -2.698265   -0.156264   -0.319634
  C     -1.974761    1.172465   -0.230377
  C     -1.820797    2.019894   -1.428778
  Fe     1.382306    0.016961    0.008432
  Cl     1.787627    2.031192   -0.845839
  C     -1.624466    1.759413    1.078986
  Cl     2.612886   -1.649802   -0.707245
  Cl     1.340262    0.160451    2.223408
  H     -3.177099   -0.203178   -1.302678
  H     -2.522678    2.297867    1.426857
  H     -1.375883    1.010885    1.831488
  H     -0.809184    2.481204    0.991707
  H     -2.488534    2.889972   -1.317875
  H     -0.795460    2.409779   -1.470076
  H     -2.063156    1.493883   -2.352252
  C     -3.764154   -0.382730    0.755197
  H     -4.562856    0.363578    0.680773
  H     -4.220112   -1.367037    0.612915
  H     -3.353107   -0.347119    1.766677
  C     -1.254799   -1.924930    0.969236
  H     -2.084428   -2.611119    1.166815
  H     -0.337124   -2.516917    0.889151
  H     -1.133785   -1.254926    1.822359
  C     -1.566362   -2.141325   -1.512255
  H     -0.657257   -2.749182   -1.559782
  H     -2.429670   -2.807939   -1.400626
  H     -1.658981   -1.592888   -2.454467

ORBITAL ENERGIES
----------------
                 SPIN UP ORBITALS
  NO   OCC          E(Eh)            E(eV)
   0   1.0000    -261.543897     -7116.9713
   1   1.0000    -104.774169     -2851.0501
   2   1.0000    -104.772481     -2851.0042
   3   1.0000    -104.768417     -2850.8936
   4   1.0000     -32.211787      -876.5273
   5   1.0000     -27.687701      -753.4206
   6   1.0000     -27.687528      -753.4159
   7   1.0000     -27.687199      -753.4070
   8   1.0000     -20.547064      -559.1140
   9   1.0000     -11.414881      -310.6147
  10   1.0000     -11.329965      -308.3040
  11   1.0000     -11.295095      -307.3552
  12   1.0000     -11.285424      -307.0920
  13   1.0000     -11.283906      -307.0507
  14   1.0000     -11.269321      -306.6538
  15   1.0000     -11.234109      -305.6956
  16   1.0000     -11.233532      -305.6799
  17   1.0000     -10.500752      -285.7400
  18   1.0000     -10.499197      -285.6977
  19   1.0000     -10.495023      -285.5841
  20   1.0000      -7.967594      -216.8093
  21   1.0000      -7.966823      -216.7883
  22   1.0000      -7.966734      -216.7859
  23   1.0000      -7.966086      -216.7682
  24   1.0000      -7.965225      -216.7448
  25   1.0000      -7.965207      -216.7443
  26   1.0000      -7.961825      -216.6523
  27   1.0000      -7.961154      -216.6340
  28   1.0000      -7.961055      -216.6313
  29   1.0000      -4.567211      -124.2801
  30   1.0000      -3.179632       -86.5222
  31   1.0000      -3.179394       -86.5157
  32   1.0000      -3.178873       -86.5015
  33   1.0000      -1.345973       -36.6258
  34   1.0000      -1.182078       -32.1660
  35   1.0000      -1.098178       -29.8829
  36   1.0000      -1.044685       -28.4273
  37   1.0000      -1.039837       -28.2954
  38   1.0000      -1.036033       -28.1919
  39   1.0000      -1.035064       -28.1655
  40   1.0000      -1.020898       -27.7800
  41   1.0000      -0.962918       -26.2023
  42   1.0000      -0.936929       -25.4951
  43   1.0000      -0.900156       -24.4945
  44   1.0000      -0.896517       -24.3955
  45   1.0000      -0.896391       -24.3920
  46   1.0000      -0.888852       -24.1869
  47   1.0000      -0.888278       -24.1713
  48   1.0000      -0.807334       -21.9687
  49   1.0000      -0.759733       -20.6734
  50   1.0000      -0.705077       -19.1861
  51   1.0000      -0.690223       -18.7819
  52   1.0000      -0.672859       -18.3094
  53   1.0000      -0.638024       -17.3615
  54   1.0000      -0.636045       -17.3077
  55   1.0000      -0.619731       -16.8637
  56   1.0000      -0.607689       -16.5361
  57   1.0000      -0.597101       -16.2480
  58   1.0000      -0.594777       -16.1847
  59   1.0000      -0.585722       -15.9383
  60   1.0000      -0.577387       -15.7115
  61   1.0000      -0.559093       -15.2137
  62   1.0000      -0.544233       -14.8093
  63   1.0000      -0.536441       -14.5973
  64   1.0000      -0.526154       -14.3174
  65   1.0000      -0.519055       -14.1242
  66   1.0000      -0.501867       -13.6565
  67   1.0000      -0.470079       -12.7915
  68   1.0000      -0.467193       -12.7130
  69   1.0000      -0.448299       -12.1988
  70   1.0000      -0.439183       -11.9508
  71   1.0000      -0.425018       -11.5653
  72   1.0000      -0.420336       -11.4379
  73   1.0000      -0.416316       -11.3285
  74   1.0000      -0.412136       -11.2148
  75   1.0000      -0.410948       -11.1825
  76   1.0000      -0.408692       -11.1211
  77   0.0000       0.005164         0.1405
  78   0.0000       0.016892         0.4597
  79   0.0000       0.020841         0.5671
  80   0.0000       0.026349         0.7170
  81   0.0000       0.030134         0.8200

                 SPIN DOWN ORBITALS
  NO   OCC          E(Eh)            E(eV)
   0   1.0000    -261.540351     -7116.8748
   1   1.0000    -104.772889     -2851.0152
   2   1.0000    -104.771122     -2850.9672
   3   1.0000    -104.766967     -2850.8541
   4   1.0000     -32.049773      -872.1187
   5   1.0000     -27.527918      -749.0727
   6   1.0000     -27.527655      -749.0656
   7   1.0000     -27.527150      -749.0518
   8   1.0000     -20.540934      -558.9472
   9   1.0000     -11.414936      -310.6162
  10   1.0000     -11.329730      -308.2976
  11   1.0000     -11.294998      -307.3525
  12   1.0000     -11.285428      -307.0921
  13   1.0000     -11.283884      -307.0501
  14   1.0000     -11.269311      -306.6535
  15   1.0000     -11.234062      -305.6944
  16   1.0000     -11.233512      -305.6794
  17   1.0000     -10.499373      -285.7025
  18   1.0000     -10.497732      -285.6578
  19   1.0000     -10.493473      -285.5419
  20   1.0000      -7.965298      -216.7468
  21   1.0000      -7.964774      -216.7325
  22   1.0000      -7.964692      -216.7303
  23   1.0000      -7.963617      -216.7010
  24   1.0000      -7.963082      -216.6865
  25   1.0000      -7.963033      -216.6852
  26   1.0000      -7.959458      -216.5879
  27   1.0000      -7.958684      -216.5668
  28   1.0000      -7.958623      -216.5651
  29   1.0000      -4.125119      -112.2502
  30   1.0000      -2.647118       -72.0317
  31   1.0000      -2.647001       -72.0286
  32   1.0000      -2.645913       -71.9989
  33   1.0000      -1.330241       -36.1977
  34   1.0000      -1.180256       -32.1164
  35   1.0000      -1.095629       -29.8136
  36   1.0000      -1.033233       -28.1157
  37   1.0000      -1.030767       -28.0486
  38   1.0000      -1.023432       -27.8490
  39   1.0000      -1.017808       -27.6960
  40   1.0000      -1.015540       -27.6342
  41   1.0000      -0.962059       -26.1790
  42   1.0000      -0.933679       -25.4067
  43   1.0000      -0.809812       -22.0361
  44   1.0000      -0.763982       -20.7890
  45   1.0000      -0.705193       -19.1893
  46   1.0000      -0.690419       -18.7873
  47   1.0000      -0.674149       -18.3445
  48   1.0000      -0.638055       -17.3624
  49   1.0000      -0.637140       -17.3374
  50   1.0000      -0.618504       -16.8304
  51   1.0000      -0.607787       -16.5387
  52   1.0000      -0.596125       -16.2214
  53   1.0000      -0.594159       -16.1679
  54   1.0000      -0.585120       -15.9219
  55   1.0000      -0.576382       -15.6842
  56   1.0000      -0.558348       -15.1934
  57   1.0000      -0.540155       -14.6984
  58   1.0000      -0.536246       -14.5920
  59   1.0000      -0.523386       -14.2420
  60   1.0000      -0.514703       -14.0058
  61   1.0000      -0.498829       -13.5738
  62   1.0000      -0.467792       -12.7293
  63   1.0000      -0.464957       -12.6521
  64   1.0000      -0.455225       -12.3873
  65   1.0000      -0.447748       -12.1838
  66   1.0000      -0.435766       -11.8578
  67   1.0000      -0.430456       -11.7133
  68   1.0000      -0.430319       -11.7096
  69   1.0000      -0.410041       -11.1578
  70   1.0000      -0.402903       -10.9636
  71   1.0000      -0.397170       -10.8075
  72   0.0000       0.005125         0.1395
  73   0.0000       0.016471         0.4482
  74   0.0000       0.020818         0.5665
  75   0.0000       0.025586         0.6962
  76   0.0000       0.030143         0.8202

E(0)                                       ...  -3028.438593857
E(0)                                       ...  -3028.438593857
E(CORR)(strong-pairs)                      ...     -2.870314704
E(CORR)(weak-pairs)                        ...     -0.034810555
E(CORR)(corrected)                         ...     -2.905125260
E(TOT)                                     ...  -3031.343719116
E(CCSD(T))                                 ...  -3031.461559871
FINAL SINGLE POINT ENERGY     -3031.461559870959

DIPOLE MOMENT
-------------
                                X             Y             Z
Electronic contribution:     40.48365       3.97041       1.33509
Nuclear contribution   :    -45.45619      -3.22545      -1.60880
                        -----------------------------------------
Total Dipole Moment    :     -4.97254       0.74496      -0.27371
                        -----------------------------------------
Magnitude (a.u.)       :      5.03548
Magnitude (Debye)      :     12.79917

Rotational constants in cm-1:     0.019178     0.011914     0.010564
Rotational constants in MHz :   574.955247   357.166120   316.690786

                             ****ORCA TERMINATED NORMALLY****
TOTAL RUN TIME: 0 days 22 hours 5 minutes 50 seconds 498 msec
