                         Program Version 4.1.2  - RELEASE  -
|  1> ! aug-cc-pVTZ aug-cc-pVTZ/C DLPNO-CCSD(T1) TightSCF NormalPNO UNO MiniPrint AutoAux
|  2> %pal nproc 10 end
|  3> %maxcore 20000
|  4> %mdci
|  5>      density none
|  6> end
|  7>
|  8> * xyz 0 6
|  9>  O      0.18021700      0.45597800     -0.86777700
| 10>  C      0.90224600      1.44844400     -0.63912900
| 11>  C      3.19069800      0.00705800      0.53895900
| 12>  C      2.65369300     -0.93165400     -0.26243800
| 13>  C      3.05385400     -1.04493600     -1.71046700
| 14> Fe     -1.48070400     -0.17798300      0.02479000
| 15> Cl     -2.06817600     -1.94484000     -1.09188000
| 16>  C      1.70325500     -2.00134400      0.19579600
| 17> Cl     -2.74668000      1.58457700     -0.25765900
| 18> Cl     -1.03949600     -0.53329700      2.14136600
| 19>  H      3.92512700      0.68118900      0.09485600
| 20>  H      2.19945400     -2.98033600      0.14740800
| 21>  H      1.33830600     -1.86015700      1.21288700
| 22>  H      0.83839000     -2.06824700     -0.47522200
| 23>  H      3.52683400     -2.01795200     -1.89817500
| 24>  H      2.17287200     -1.00087500     -2.36411900
| 25>  H      3.76014900     -0.26514600     -2.01135300
| 26>  C      2.99488800      0.16237800      2.02171600
| 27>  H      3.84014500     -0.27612000      2.56999200
| 28>  H      2.95495400      1.21940500      2.30950600
| 29>  H      2.08247900     -0.31813700      2.38350400
| 30>  C      0.77354200      2.23017600      0.62842100
| 31>  H      1.64369200      2.86365300      0.80639000
| 32>  H     -0.11307500      2.87179500      0.51656100
| 33>  H      0.59230300      1.57410800      1.48118400
| 34>  C      1.73627000      2.00301500     -1.74988100
| 35>  H      1.22999400      2.91273500     -2.10436700
| 36>  H      2.72576900      2.29746100     -1.39419000
| 37>  H      1.81245200      1.29804200     -2.57608600
| 38> *
| 39>
| 40>
| 41>                          ****END OF INPUT****

CARTESIAN COORDINATES (ANGSTROEM)
---------------------------------
  O      0.180217    0.455978   -0.867777
  C      0.902246    1.448444   -0.639129
  C      3.190698    0.007058    0.538959
  C      2.653693   -0.931654   -0.262438
  C      3.053854   -1.044936   -1.710467
  Fe    -1.480704   -0.177983    0.024790
  Cl    -2.068176   -1.944840   -1.091880
  C      1.703255   -2.001344    0.195796
  Cl    -2.746680    1.584577   -0.257659
  Cl    -1.039496   -0.533297    2.141366
  H      3.925127    0.681189    0.094856
  H      2.199454   -2.980336    0.147408
  H      1.338306   -1.860157    1.212887
  H      0.838390   -2.068247   -0.475222
  H      3.526834   -2.017952   -1.898175
  H      2.172872   -1.000875   -2.364119
  H      3.760149   -0.265146   -2.011353
  C      2.994888    0.162378    2.021716
  H      3.840145   -0.276120    2.569992
  H      2.954954    1.219405    2.309506
  H      2.082479   -0.318137    2.383504
  C      0.773542    2.230176    0.628421
  H      1.643692    2.863653    0.806390
  H     -0.113075    2.871795    0.516561
  H      0.592303    1.574108    1.481184
  C      1.736270    2.003015   -1.749881
  H      1.229994    2.912735   -2.104367
  H      2.725769    2.297461   -1.394190
  H      1.812452    1.298042   -2.576086

ORBITAL ENERGIES
----------------
                 SPIN UP ORBITALS
  NO   OCC          E(Eh)            E(eV)
   0   1.0000    -261.579603     -7117.9429
   1   1.0000    -104.796208     -2851.6498
   2   1.0000    -104.793273     -2851.5699
   3   1.0000    -104.791377     -2851.5183
   4   1.0000     -32.247243      -877.4921
   5   1.0000     -27.723805      -754.4031
   6   1.0000     -27.722537      -754.3686
   7   1.0000     -27.722344      -754.3633
   8   1.0000     -20.629034      -561.3445
   9   1.0000     -11.422453      -310.8208
  10   1.0000     -11.280196      -306.9497
  11   1.0000     -11.274180      -306.7860
  12   1.0000     -11.256809      -306.3134
  13   1.0000     -11.238627      -305.8186
  14   1.0000     -11.237483      -305.7875
  15   1.0000     -11.233925      -305.6906
  16   1.0000     -11.224918      -305.4456
  17   1.0000     -10.522949      -286.3440
  18   1.0000     -10.519983      -286.2633
  19   1.0000     -10.518034      -286.2103
  20   1.0000      -7.989767      -217.4126
  21   1.0000      -7.989042      -217.3929
  22   1.0000      -7.988980      -217.3912
  23   1.0000      -7.986878      -217.3340
  24   1.0000      -7.986074      -217.3121
  25   1.0000      -7.986021      -217.3107
  26   1.0000      -7.984812      -217.2778
  27   1.0000      -7.984165      -217.2602
  28   1.0000      -7.984125      -217.2591
  29   1.0000      -4.601971      -125.2260
  30   1.0000      -3.215147       -87.4886
  31   1.0000      -3.213286       -87.4379
  32   1.0000      -3.213183       -87.4351
  33   1.0000      -1.472648       -40.0728
  34   1.0000      -1.117905       -30.4197
  35   1.0000      -1.104169       -30.0460
  36   1.0000      -1.069852       -29.1121
  37   1.0000      -1.064035       -28.9539
  38   1.0000      -1.061346       -28.8807
  39   1.0000      -1.020767       -27.7765
  40   1.0000      -1.008353       -27.4387
  41   1.0000      -0.952824       -25.9277
  42   1.0000      -0.945449       -25.7270
  43   1.0000      -0.930794       -25.3282
  44   1.0000      -0.930649       -25.3242
  45   1.0000      -0.919654       -25.0251
  46   1.0000      -0.919038       -25.0083
  47   1.0000      -0.890343       -24.2275
  48   1.0000      -0.818183       -22.2639
  49   1.0000      -0.722906       -19.6713
  50   1.0000      -0.716976       -19.5099
  51   1.0000      -0.706949       -19.2371
  52   1.0000      -0.684950       -18.6384
  53   1.0000      -0.648828       -17.6555
  54   1.0000      -0.621678       -16.9167
  55   1.0000      -0.615525       -16.7493
  56   1.0000      -0.603672       -16.4268
  57   1.0000      -0.599996       -16.3267
  58   1.0000      -0.586691       -15.9647
  59   1.0000      -0.580279       -15.7902
  60   1.0000      -0.561286       -15.2734
  61   1.0000      -0.547707       -14.9039
  62   1.0000      -0.546638       -14.8748
  63   1.0000      -0.537718       -14.6321
  64   1.0000      -0.535178       -14.5629
  65   1.0000      -0.521893       -14.2014
  66   1.0000      -0.507198       -13.8016
  67   1.0000      -0.487398       -13.2628
  68   1.0000      -0.479513       -13.0482
  69   1.0000      -0.478413       -13.0183
  70   1.0000      -0.449531       -12.2323
  71   1.0000      -0.442982       -12.0542
  72   1.0000      -0.441192       -12.0055
  73   1.0000      -0.432620       -11.7722
  74   1.0000      -0.431580       -11.7439
  75   1.0000      -0.430372       -11.7110
  76   1.0000      -0.354481        -9.6459
  77   0.0000       0.012726         0.3463
  78   0.0000       0.024011         0.6534
  79   0.0000       0.024923         0.6782
  80   0.0000       0.030982         0.8431
  81   0.0000       0.039572         1.0768

                 SPIN DOWN ORBITALS
  NO   OCC          E(Eh)            E(eV)
   0   1.0000    -261.576014     -7117.8452
   1   1.0000    -104.794700     -2851.6087
   2   1.0000    -104.791705     -2851.5273
   3   1.0000    -104.789792     -2851.4752
   4   1.0000     -32.085283      -873.0849
   5   1.0000     -27.563249      -750.0341
   6   1.0000     -27.563094      -750.0299
   7   1.0000     -27.563030      -750.0282
   8   1.0000     -20.625752      -561.2552
   9   1.0000     -11.422391      -310.8190
  10   1.0000     -11.280094      -306.9470
  11   1.0000     -11.274174      -306.7859
  12   1.0000     -11.256857      -306.3147
  13   1.0000     -11.238565      -305.8169
  14   1.0000     -11.237476      -305.7873
  15   1.0000     -11.233931      -305.6908
  16   1.0000     -11.224925      -305.4457
  17   1.0000     -10.521340      -286.3002
  18   1.0000     -10.518310      -286.2178
  19   1.0000     -10.516352      -286.1645
  20   1.0000      -7.987274      -217.3448
  21   1.0000      -7.986489      -217.3234
  22   1.0000      -7.986453      -217.3224
  23   1.0000      -7.984172      -217.2604
  24   1.0000      -7.983504      -217.2422
  25   1.0000      -7.983410      -217.2396
  26   1.0000      -7.982352      -217.2108
  27   1.0000      -7.981417      -217.1854
  28   1.0000      -7.981337      -217.1832
  29   1.0000      -4.159977      -113.1987
  30   1.0000      -2.681516       -72.9677
  31   1.0000      -2.681454       -72.9661
  32   1.0000      -2.681061       -72.9554
  33   1.0000      -1.464705       -39.8566
  34   1.0000      -1.117604       -30.4116
  35   1.0000      -1.102057       -29.9885
  36   1.0000      -1.054005       -28.6809
  37   1.0000      -1.041354       -28.3367
  38   1.0000      -1.038299       -28.2536
  39   1.0000      -1.019750       -27.7488
  40   1.0000      -1.008185       -27.4341
  41   1.0000      -0.952645       -25.9228
  42   1.0000      -0.890409       -24.2293
  43   1.0000      -0.830150       -22.5895
  44   1.0000      -0.723055       -19.6753
  45   1.0000      -0.718339       -19.5470
  46   1.0000      -0.706241       -19.2178
  47   1.0000      -0.684421       -18.6240
  48   1.0000      -0.648789       -17.6545
  49   1.0000      -0.621083       -16.9005
  50   1.0000      -0.615442       -16.7470
  51   1.0000      -0.603565       -16.4239
  52   1.0000      -0.599923       -16.3247
  53   1.0000      -0.586407       -15.9569
  54   1.0000      -0.578886       -15.7523
  55   1.0000      -0.560386       -15.2489
  56   1.0000      -0.546643       -14.8749
  57   1.0000      -0.544801       -14.8248
  58   1.0000      -0.535293       -14.5661
  59   1.0000      -0.527367       -14.3504
  60   1.0000      -0.521663       -14.1952
  61   1.0000      -0.508978       -13.8500
  62   1.0000      -0.488715       -13.2986
  63   1.0000      -0.486393       -13.2354
  64   1.0000      -0.485054       -13.1990
  65   1.0000      -0.456352       -12.4180
  66   1.0000      -0.453393       -12.3374
  67   1.0000      -0.450210       -12.2508
  68   1.0000      -0.433623       -11.7995
  69   1.0000      -0.431945       -11.7538
  70   1.0000      -0.415548       -11.3076
  71   1.0000      -0.354157        -9.6371
  72   0.0000       0.012709         0.3458
  73   0.0000       0.023987         0.6527
  74   0.0000       0.024881         0.6770
  75   0.0000       0.030931         0.8417
  76   0.0000       0.039499         1.0748

E(0)                                       ...  -3028.474164438
E(0)                                       ...  -3028.474164438
E(CORR)(strong-pairs)                      ...     -2.864754825
E(CORR)(weak-pairs)                        ...     -0.035269557
E(CORR)(corrected)                         ...     -2.900024382
E(TOT)                                     ...  -3031.374188820
E(CCSD(T))                                 ...  -3031.491631705
FINAL SINGLE POINT ENERGY     -3031.491631705369

DIPOLE MOMENT
-------------
                                X             Y             Z
Electronic contribution:    -43.75605      -4.98353       1.85497
Nuclear contribution   :     46.80195       6.64638      -2.44986
                        -----------------------------------------
Total Dipole Moment    :      3.04590       1.66285      -0.59489
                        -----------------------------------------
Magnitude (a.u.)       :      3.52086
Magnitude (Debye)      :      8.94932

Rotational constants in cm-1:     0.018613     0.010611     0.009993
Rotational constants in MHz :   558.004244   318.111712   299.585844

                             ****ORCA TERMINATED NORMALLY****
TOTAL RUN TIME: 0 days 16 hours 24 minutes 20 seconds 208 msec
