                         Program Version 4.1.2  - RELEASE  -
|  1> ! aug-cc-pVTZ aug-cc-pVTZ/C DLPNO-CCSD(T1) TightSCF NormalPNO UNO MiniPrint AutoAux
|  2> %pal nproc 10 end
|  3> %maxcore 20000
|  4> %mdci
|  5>      density none
|  6> end
|  7>
|  8> * xyz 0 6
|  9>  O      0.21491700      0.33110800     -0.85334400
| 10>  C      1.04587200      1.26197400     -0.66479300
| 11>  C      2.95335600      0.20420200      0.55693800
| 12>  C      2.66288900     -0.93115700     -0.12085000
| 13>  C      3.22731700     -1.20321100     -1.48613800
| 14> Fe     -1.47650700     -0.15737900     -0.00264100
| 15> Cl     -2.04057900     -2.02675100     -0.96751500
| 16>  C      1.75165600     -2.00014000      0.39941300
| 17> Cl     -2.71748700      1.58279700     -0.47446000
| 18> Cl     -1.11664200     -0.35631900      2.15747300
| 19>  H      3.67345700      0.88253900      0.10039800
| 20>  H      2.28653900     -2.95757600      0.44960700
| 21>  H      1.33734500     -1.78442500      1.38357600
| 22>  H      0.91693800     -2.15192700     -0.29821400
| 23>  H      3.79071500     -2.14516800     -1.47213800
| 24>  H      2.42216000     -1.33811200     -2.22101100
| 25>  H      3.90046000     -0.41352500     -1.82984900
| 26>  C      2.68534000      0.43894200      2.02303900
| 27>  H      3.45368900     -0.06608500      2.62342800
| 28>  H      2.73724900      1.50129600      2.27541800
| 29>  H      1.71378200      0.06111700      2.34941300
| 30>  C      0.82764800      2.25252300      0.44017100
| 31>  H      1.71058000      2.86301400      0.63195200
| 32>  H      0.01899200      2.90953500      0.08657200
| 33>  H      0.47930600      1.77690300      1.35660200
| 34>  C      1.85362500      1.70718700     -1.85151000
| 35>  H      1.22474700      2.43932300     -2.37866700
| 36>  H      2.78096800      2.20579900     -1.56713800
| 37>  H      2.04674200      0.88299600     -2.53563200
| 38> *
| 39>
| 40>
| 41>                          ****END OF INPUT****

CARTESIAN COORDINATES (ANGSTROEM)
---------------------------------
  O      0.214917    0.331108   -0.853344
  C      1.045872    1.261974   -0.664793
  C      2.953356    0.204202    0.556938
  C      2.662889   -0.931157   -0.120850
  C      3.227317   -1.203211   -1.486138
  Fe    -1.476507   -0.157379   -0.002641
  Cl    -2.040579   -2.026751   -0.967515
  C      1.751656   -2.000140    0.399413
  Cl    -2.717487    1.582797   -0.474460
  Cl    -1.116642   -0.356319    2.157473
  H      3.673457    0.882539    0.100398
  H      2.286539   -2.957576    0.449607
  H      1.337345   -1.784425    1.383576
  H      0.916938   -2.151927   -0.298214
  H      3.790715   -2.145168   -1.472138
  H      2.422160   -1.338112   -2.221011
  H      3.900460   -0.413525   -1.829849
  C      2.685340    0.438942    2.023039
  H      3.453689   -0.066085    2.623428
  H      2.737249    1.501296    2.275418
  H      1.713782    0.061117    2.349413
  C      0.827648    2.252523    0.440171
  H      1.710580    2.863014    0.631952
  H      0.018992    2.909535    0.086572
  H      0.479306    1.776903    1.356602
  C      1.853625    1.707187   -1.851510
  H      1.224747    2.439323   -2.378667
  H      2.780968    2.205799   -1.567138
  H      2.046742    0.882996   -2.535632

ORBITAL ENERGIES
----------------
                 SPIN UP ORBITALS
  NO   OCC          E(Eh)            E(eV)
   0   1.0000    -261.572757     -7117.7566
   1   1.0000    -104.792160     -2851.5397
   2   1.0000    -104.788565     -2851.4418
   3   1.0000    -104.786545     -2851.3868
   4   1.0000     -32.240505      -877.3088
   5   1.0000     -27.716923      -754.2158
   6   1.0000     -27.715887      -754.1876
   7   1.0000     -27.715687      -754.1822
   8   1.0000     -20.613020      -560.9088
   9   1.0000     -11.420224      -310.7601
  10   1.0000     -11.277012      -306.8631
  11   1.0000     -11.275737      -306.8284
  12   1.0000     -11.270543      -306.6871
  13   1.0000     -11.248471      -306.0865
  14   1.0000     -11.248065      -306.0754
  15   1.0000     -11.237920      -305.7994
  16   1.0000     -11.233170      -305.6701
  17   1.0000     -10.518870      -286.2330
  18   1.0000     -10.515246      -286.1344
  19   1.0000     -10.513178      -286.0781
  20   1.0000      -7.985710      -217.3022
  21   1.0000      -7.984940      -217.2813
  22   1.0000      -7.984896      -217.2801
  23   1.0000      -7.982115      -217.2044
  24   1.0000      -7.981345      -217.1834
  25   1.0000      -7.981291      -217.1820
  26   1.0000      -7.979974      -217.1461
  27   1.0000      -7.979306      -217.1280
  28   1.0000      -7.979251      -217.1265
  29   1.0000      -4.595454      -125.0487
  30   1.0000      -3.208558       -87.3093
  31   1.0000      -3.206921       -87.2647
  32   1.0000      -3.206740       -87.2598
  33   1.0000      -1.456765       -39.6406
  34   1.0000      -1.132843       -30.8262
  35   1.0000      -1.098184       -29.8831
  36   1.0000      -1.064860       -28.9763
  37   1.0000      -1.058981       -28.8163
  38   1.0000      -1.055884       -28.7321
  39   1.0000      -1.023835       -27.8600
  40   1.0000      -1.007886       -27.4260
  41   1.0000      -0.963302       -26.2128
  42   1.0000      -0.940340       -25.5879
  43   1.0000      -0.924432       -25.1551
  44   1.0000      -0.924315       -25.1519
  45   1.0000      -0.913904       -24.8686
  46   1.0000      -0.913187       -24.8491
  47   1.0000      -0.900277       -24.4978
  48   1.0000      -0.810629       -22.0583
  49   1.0000      -0.734947       -19.9989
  50   1.0000      -0.708023       -19.2663
  51   1.0000      -0.698168       -18.9981
  52   1.0000      -0.683766       -18.6062
  53   1.0000      -0.659348       -17.9418
  54   1.0000      -0.625372       -17.0172
  55   1.0000      -0.621307       -16.9066
  56   1.0000      -0.605278       -16.4705
  57   1.0000      -0.598732       -16.2923
  58   1.0000      -0.585048       -15.9200
  59   1.0000      -0.577106       -15.7039
  60   1.0000      -0.561003       -15.2657
  61   1.0000      -0.554940       -15.1007
  62   1.0000      -0.546588       -14.8734
  63   1.0000      -0.544409       -14.8141
  64   1.0000      -0.535401       -14.5690
  65   1.0000      -0.528496       -14.3811
  66   1.0000      -0.500840       -13.6286
  67   1.0000      -0.497238       -13.5305
  68   1.0000      -0.475301       -12.9336
  69   1.0000      -0.473819       -12.8933
  70   1.0000      -0.444666       -12.1000
  71   1.0000      -0.438853       -11.9418
  72   1.0000      -0.436943       -11.8898
  73   1.0000      -0.428381       -11.6568
  74   1.0000      -0.427286       -11.6271
  75   1.0000      -0.425973       -11.5913
  76   1.0000      -0.363060        -9.8794
  77   0.0000       0.012398         0.3374
  78   0.0000       0.023112         0.6289
  79   0.0000       0.023888         0.6500
  80   0.0000       0.030375         0.8265
  81   0.0000       0.039032         1.0621

                 SPIN DOWN ORBITALS
  NO   OCC          E(Eh)            E(eV)
   0   1.0000    -261.569181     -7117.6593
   1   1.0000    -104.790690     -2851.4996
   2   1.0000    -104.787019     -2851.3998
   3   1.0000    -104.784999     -2851.3448
   4   1.0000     -32.078495      -872.9002
   5   1.0000     -27.556408      -749.8480
   6   1.0000     -27.556350      -749.8464
   7   1.0000     -27.556217      -749.8428
   8   1.0000     -20.609348      -560.8089
   9   1.0000     -11.420139      -310.7578
  10   1.0000     -11.276993      -306.8626
  11   1.0000     -11.275627      -306.8254
  12   1.0000     -11.270532      -306.6868
  13   1.0000     -11.248448      -306.0858
  14   1.0000     -11.248068      -306.0755
  15   1.0000     -11.237920      -305.7994
  16   1.0000     -11.233188      -305.6706
  17   1.0000     -10.517297      -286.1902
  18   1.0000     -10.513596      -286.0895
  19   1.0000     -10.511535      -286.0334
  20   1.0000      -7.983209      -217.2342
  21   1.0000      -7.982502      -217.2149
  22   1.0000      -7.982461      -217.2138
  23   1.0000      -7.979488      -217.1329
  24   1.0000      -7.978791      -217.1139
  25   1.0000      -7.978702      -217.1115
  26   1.0000      -7.977520      -217.0793
  27   1.0000      -7.976653      -217.0558
  28   1.0000      -7.976568      -217.0535
  29   1.0000      -4.153315      -113.0174
  30   1.0000      -2.674889       -72.7874
  31   1.0000      -2.674863       -72.7867
  32   1.0000      -2.674355       -72.7729
  33   1.0000      -1.447689       -39.3936
  34   1.0000      -1.132497       -30.8168
  35   1.0000      -1.095696       -29.8154
  36   1.0000      -1.049353       -28.5544
  37   1.0000      -1.036854       -28.2142
  38   1.0000      -1.033408       -28.1205
  39   1.0000      -1.023240       -27.8438
  40   1.0000      -1.007263       -27.4090
  41   1.0000      -0.963216       -26.2104
  42   1.0000      -0.900473       -24.5031
  43   1.0000      -0.824046       -22.4234
  44   1.0000      -0.735025       -20.0011
  45   1.0000      -0.710293       -19.3280
  46   1.0000      -0.697240       -18.9729
  47   1.0000      -0.683101       -18.5881
  48   1.0000      -0.659268       -17.9396
  49   1.0000      -0.625337       -17.0163
  50   1.0000      -0.620788       -16.8925
  51   1.0000      -0.604947       -16.4615
  52   1.0000      -0.598614       -16.2891
  53   1.0000      -0.584753       -15.9119
  54   1.0000      -0.575649       -15.6642
  55   1.0000      -0.560408       -15.2495
  56   1.0000      -0.554756       -15.0957
  57   1.0000      -0.545046       -14.8315
  58   1.0000      -0.544257       -14.8100
  59   1.0000      -0.529801       -14.4166
  60   1.0000      -0.521976       -14.2037
  61   1.0000      -0.502161       -13.6645
  62   1.0000      -0.497388       -13.5346
  63   1.0000      -0.483246       -13.1498
  64   1.0000      -0.480505       -13.0752
  65   1.0000      -0.452368       -12.3096
  66   1.0000      -0.448934       -12.2161
  67   1.0000      -0.446125       -12.1397
  68   1.0000      -0.430064       -11.7026
  69   1.0000      -0.427034       -11.6202
  70   1.0000      -0.411715       -11.2033
  71   1.0000      -0.362268        -9.8578
  72   0.0000       0.012381         0.3369
  73   0.0000       0.023087         0.6282
  74   0.0000       0.023855         0.6491
  75   0.0000       0.030277         0.8239
  76   0.0000       0.038879         1.0580

E(0)                                       ...  -3028.458039521
E(0)                                       ...  -3028.458039521
E(CORR)(strong-pairs)                      ...     -2.869067476
E(CORR)(weak-pairs)                        ...     -0.035945625
E(CORR)(corrected)                         ...     -2.905013101
E(TOT)                                     ...  -3031.363052622
E(CCSD(T))                                 ...  -3031.481516105
FINAL SINGLE POINT ENERGY     -3031.481516104705

DIPOLE MOMENT
-------------
                                X             Y             Z
Electronic contribution:    -43.26049      -4.88660       1.38416
Nuclear contribution   :     46.78021       6.18391      -1.99708
                        -----------------------------------------
Total Dipole Moment    :      3.51972       1.29732      -0.61292
                        -----------------------------------------
Magnitude (a.u.)       :      3.80093
Magnitude (Debye)      :      9.66120

Rotational constants in cm-1:     0.018958     0.010797     0.010158
Rotational constants in MHz :   568.353171   323.689873   304.521999

                             ****ORCA TERMINATED NORMALLY****
TOTAL RUN TIME: 0 days 17 hours 17 minutes 24 seconds 323 msec
