                         Program Version 4.1.2  - RELEASE  -
|  1> ! aug-cc-pVTZ aug-cc-pVTZ/C DLPNO-CCSD(T1) TightSCF NormalPNO UNO MiniPrint AutoAux
|  2> %pal nproc 10 end
|  3> %maxcore 20000
|  4> %mdci
|  5>      density none
|  6> end
|  7>
|  8> * xyz 0 6
|  9>  O     -0.44135700     -0.15123200     -0.49926300
| 10>  C     -1.45839100     -1.19039200     -0.33355700
| 11>  C     -2.76890700     -0.11244800     -0.23068700
| 12>  C     -1.89007500      1.13450800     -0.27441300
| 13>  C     -1.81457200      1.90735800     -1.54434900
| 14> Fe      1.37211400      0.03523300      0.03673900
| 15> Cl      1.88210000      1.98564100     -0.85738400
| 16>  C     -1.54448200      1.85703200      0.98069500
| 17> Cl      2.38771300     -1.73716700     -0.75284200
| 18> Cl      1.39567800      0.13940400      2.24126900
| 19>  H     -3.33497700     -0.18911600     -1.16320500
| 20>  H     -2.41110100      2.48197700      1.24548000
| 21>  H     -1.34344300      1.18425600      1.81440800
| 22>  H     -0.68470700      2.51419200      0.83152600
| 23>  H     -2.63927000      2.63735900     -1.53430000
| 24>  H     -0.87156200      2.45547700     -1.61397600
| 25>  H     -1.93723500      1.26485100     -2.41796200
| 26>  C     -3.70011700     -0.26844800      0.96171000
| 27>  H     -4.46294300      0.51891100      0.97167600
| 28>  H     -4.22144100     -1.22867400      0.89952900
| 29>  H     -3.17005300     -0.23807200      1.91654600
| 30>  C     -1.22004700     -2.00228600      0.92238900
| 31>  H     -2.03716800     -2.71362100      1.08071700
| 32>  H     -0.29085100     -2.57271200      0.81235700
| 33>  H     -1.11834200     -1.37095600      1.80715800
| 34>  C     -1.50492700     -2.03878000     -1.58757800
| 35>  H     -0.55006500     -2.56178600     -1.70866400
| 36>  H     -2.30665100     -2.78283600     -1.52170700
| 37>  H     -1.66854000     -1.41863800     -2.47368900
| 38> *
| 39>
| 40>
| 41>                          ****END OF INPUT****

CARTESIAN COORDINATES (ANGSTROEM)
---------------------------------
  O     -0.441357   -0.151232   -0.499263
  C     -1.458391   -1.190392   -0.333557
  C     -2.768907   -0.112448   -0.230687
  C     -1.890075    1.134508   -0.274413
  C     -1.814572    1.907358   -1.544349
  Fe     1.372114    0.035233    0.036739
  Cl     1.882100    1.985641   -0.857384
  C     -1.544482    1.857032    0.980695
  Cl     2.387713   -1.737167   -0.752842
  Cl     1.395678    0.139404    2.241269
  H     -3.334977   -0.189116   -1.163205
  H     -2.411101    2.481977    1.245480
  H     -1.343443    1.184256    1.814408
  H     -0.684707    2.514192    0.831526
  H     -2.639270    2.637359   -1.534300
  H     -0.871562    2.455477   -1.613976
  H     -1.937235    1.264851   -2.417962
  C     -3.700117   -0.268448    0.961710
  H     -4.462943    0.518911    0.971676
  H     -4.221441   -1.228674    0.899529
  H     -3.170053   -0.238072    1.916546
  C     -1.220047   -2.002286    0.922389
  H     -2.037168   -2.713621    1.080717
  H     -0.290851   -2.572712    0.812357
  H     -1.118342   -1.370956    1.807158
  C     -1.504927   -2.038780   -1.587578
  H     -0.550065   -2.561786   -1.708664
  H     -2.306651   -2.782836   -1.521707
  H     -1.668540   -1.418638   -2.473689

ORBITAL ENERGIES
----------------
                 SPIN UP ORBITALS
  NO   OCC          E(Eh)            E(eV)
   0   1.0000    -261.554293     -7117.2541
   1   1.0000    -104.780378     -2851.2190
   2   1.0000    -104.778332     -2851.1634
   3   1.0000    -104.777259     -2851.1342
   4   1.0000     -32.222215      -876.8110
   5   1.0000     -27.698245      -753.7076
   6   1.0000     -27.697836      -753.6964
   7   1.0000     -27.697582      -753.6895
   8   1.0000     -20.575153      -559.8784
   9   1.0000     -11.395531      -310.0882
  10   1.0000     -11.339402      -308.5608
  11   1.0000     -11.291499      -307.2573
  12   1.0000     -11.272849      -306.7498
  13   1.0000     -11.271670      -306.7177
  14   1.0000     -11.261007      -306.4276
  15   1.0000     -11.238014      -305.8019
  16   1.0000     -11.236934      -305.7725
  17   1.0000     -10.507008      -285.9102
  18   1.0000     -10.505028      -285.8563
  19   1.0000     -10.503907      -285.8258
  20   1.0000      -7.973831      -216.9790
  21   1.0000      -7.973101      -216.9591
  22   1.0000      -7.973031      -216.9572
  23   1.0000      -7.971905      -216.9266
  24   1.0000      -7.971080      -216.9041
  25   1.0000      -7.971051      -216.9033
  26   1.0000      -7.970706      -216.8939
  27   1.0000      -7.970023      -216.8754
  28   1.0000      -7.969958      -216.8736
  29   1.0000      -4.577529      -124.5609
  30   1.0000      -3.190021       -86.8049
  31   1.0000      -3.189582       -86.7929
  32   1.0000      -3.189056       -86.7786
  33   1.0000      -1.365282       -37.1512
  34   1.0000      -1.158930       -31.5361
  35   1.0000      -1.089569       -29.6487
  36   1.0000      -1.052385       -28.6369
  37   1.0000      -1.046608       -28.4797
  38   1.0000      -1.045100       -28.4386
  39   1.0000      -1.035393       -28.1745
  40   1.0000      -1.005904       -27.3720
  41   1.0000      -0.966128       -26.2897
  42   1.0000      -0.931220       -25.3398
  43   1.0000      -0.906957       -24.6796
  44   1.0000      -0.906817       -24.6757
  45   1.0000      -0.903308       -24.5803
  46   1.0000      -0.898074       -24.4378
  47   1.0000      -0.897409       -24.4197
  48   1.0000      -0.798242       -21.7213
  49   1.0000      -0.756552       -20.5868
  50   1.0000      -0.693546       -18.8724
  51   1.0000      -0.686950       -18.6929
  52   1.0000      -0.669104       -18.2072
  53   1.0000      -0.636337       -17.3156
  54   1.0000      -0.627999       -17.0887
  55   1.0000      -0.619367       -16.8538
  56   1.0000      -0.598502       -16.2861
  57   1.0000      -0.594021       -16.1641
  58   1.0000      -0.588178       -16.0051
  59   1.0000      -0.582280       -15.8447
  60   1.0000      -0.569345       -15.4927
  61   1.0000      -0.559408       -15.2223
  62   1.0000      -0.543527       -14.7901
  63   1.0000      -0.535860       -14.5815
  64   1.0000      -0.530187       -14.4271
  65   1.0000      -0.520054       -14.1514
  66   1.0000      -0.505951       -13.7676
  67   1.0000      -0.481480       -13.1017
  68   1.0000      -0.468303       -12.7432
  69   1.0000      -0.456985       -12.4352
  70   1.0000      -0.443801       -12.0764
  71   1.0000      -0.430527       -11.7152
  72   1.0000      -0.426742       -11.6122
  73   1.0000      -0.421000       -11.4560
  74   1.0000      -0.417727       -11.3669
  75   1.0000      -0.416809       -11.3419
  76   1.0000      -0.416374       -11.3301
  77   0.0000       0.008993         0.2447
  78   0.0000       0.020969         0.5706
  79   0.0000       0.023154         0.6301
  80   0.0000       0.031070         0.8455
  81   0.0000       0.037954         1.0328

                 SPIN DOWN ORBITALS
  NO   OCC          E(Eh)            E(eV)
   0   1.0000    -261.550740     -7117.1575
   1   1.0000    -104.778998     -2851.1815
   2   1.0000    -104.776910     -2851.1247
   3   1.0000    -104.775782     -2851.0940
   4   1.0000     -32.060255      -872.4039
   5   1.0000     -27.538254      -749.3540
   6   1.0000     -27.538118      -749.3503
   7   1.0000     -27.537754      -749.3404
   8   1.0000     -20.570156      -559.7424
   9   1.0000     -11.395563      -310.0890
  10   1.0000     -11.339245      -308.5565
  11   1.0000     -11.291393      -307.2544
  12   1.0000     -11.272832      -306.7494
  13   1.0000     -11.271680      -306.7180
  14   1.0000     -11.260995      -306.4273
  15   1.0000     -11.237984      -305.8011
  16   1.0000     -11.236926      -305.7723
  17   1.0000     -10.505530      -285.8700
  18   1.0000     -10.503502      -285.8148
  19   1.0000     -10.502328      -285.7829
  20   1.0000      -7.971488      -216.9152
  21   1.0000      -7.970815      -216.8969
  22   1.0000      -7.970752      -216.8952
  23   1.0000      -7.969403      -216.8585
  24   1.0000      -7.968789      -216.8418
  25   1.0000      -7.968729      -216.8401
  26   1.0000      -7.968305      -216.8286
  27   1.0000      -7.967510      -216.8070
  28   1.0000      -7.967460      -216.8056
  29   1.0000      -4.135471      -112.5319
  30   1.0000      -2.657369       -72.3107
  31   1.0000      -2.657221       -72.3067
  32   1.0000      -2.656273       -72.2809
  33   1.0000      -1.352309       -36.7982
  34   1.0000      -1.157119       -31.4868
  35   1.0000      -1.087181       -29.5837
  36   1.0000      -1.037489       -28.2315
  37   1.0000      -1.034335       -28.1457
  38   1.0000      -1.026198       -27.9243
  39   1.0000      -1.024175       -27.8692
  40   1.0000      -1.005619       -27.3643
  41   1.0000      -0.965512       -26.2729
  42   1.0000      -0.922341       -25.0982
  43   1.0000      -0.800294       -21.7771
  44   1.0000      -0.760230       -20.6869
  45   1.0000      -0.693585       -18.8734
  46   1.0000      -0.686696       -18.6860
  47   1.0000      -0.669758       -18.2250
  48   1.0000      -0.636955       -17.3324
  49   1.0000      -0.628060       -17.0904
  50   1.0000      -0.617896       -16.8138
  51   1.0000      -0.598416       -16.2837
  52   1.0000      -0.593244       -16.1430
  53   1.0000      -0.588065       -16.0021
  54   1.0000      -0.580583       -15.7985
  55   1.0000      -0.569181       -15.4882
  56   1.0000      -0.559074       -15.2132
  57   1.0000      -0.539548       -14.6818
  58   1.0000      -0.535305       -14.5664
  59   1.0000      -0.528232       -14.3739
  60   1.0000      -0.514400       -13.9975
  61   1.0000      -0.505877       -13.7656
  62   1.0000      -0.477893       -13.0041
  63   1.0000      -0.471256       -12.8235
  64   1.0000      -0.466831       -12.7031
  65   1.0000      -0.443354       -12.0643
  66   1.0000      -0.441359       -12.0100
  67   1.0000      -0.438510       -11.9325
  68   1.0000      -0.435683       -11.8555
  69   1.0000      -0.417341       -11.3564
  70   1.0000      -0.411353       -11.1935
  71   1.0000      -0.403297       -10.9743
  72   0.0000       0.008976         0.2443
  73   0.0000       0.020895         0.5686
  74   0.0000       0.023133         0.6295
  75   0.0000       0.031116         0.8467
  76   0.0000       0.037958         1.0329

E(0)                                       ...  -3028.443638859
E(0)                                       ...  -3028.443638859
E(CORR)(strong-pairs)                      ...     -2.875863206
E(CORR)(weak-pairs)                        ...     -0.035407140
E(CORR)(corrected)                         ...     -2.911270346
E(TOT)                                     ...  -3031.354909206
E(CCSD(T))                                 ...  -3031.473988976
FINAL SINGLE POINT ENERGY     -3031.473988975731

DIPOLE MOMENT
-------------
                                X             Y             Z
Electronic contribution:     40.32672       3.06120       1.66338
Nuclear contribution   :    -44.71780      -2.61261      -2.02856
                        -----------------------------------------
Total Dipole Moment    :     -4.39107       0.44859      -0.36518
                        -----------------------------------------
Magnitude (a.u.)       :      4.42901
Magnitude (Debye)      :     11.25765

Rotational constants in cm-1:     0.018932     0.012111     0.010829
Rotational constants in MHz :   567.567119   363.075162   324.655031

                             ****ORCA TERMINATED NORMALLY****
TOTAL RUN TIME: 0 days 21 hours 19 minutes 54 seconds 519 msec
