                         Program Version 4.1.2  - RELEASE  -
|  1> ! aug-cc-pVTZ aug-cc-pVTZ/C DLPNO-CCSD(T1) TightSCF NormalPNO UNO MiniPrint AutoAux
|  2> %pal nproc 10 end
|  3> %maxcore 20000
|  4> %mdci
|  5>      density none
|  6> end
|  7>
|  8> * xyz 0 6
|  9>  O     -0.32531200     -0.11977100     -0.62099700
| 10>  C     -1.23932500     -1.03715500     -0.54810600
| 11>  C     -3.05644400     -0.06492100      0.06454200
| 12>  C     -2.31188700      1.05844600     -0.18758000
| 13>  C     -2.27404300      1.69381700     -1.53854100
| 14> Fe      1.44282500      0.06751200      0.04523600
| 15> Cl      2.04258100      2.02401100     -0.74796000
| 16>  C     -1.56785600      1.79007600      0.88145400
| 17> Cl      2.48369000     -1.69430200     -0.75840200
| 18> Cl      1.33838400      0.02489600      2.25247200
| 19>  H     -3.68619600     -0.42067900     -0.74764600
| 20>  H     -2.25291500      2.53603900      1.31138900
| 21>  H     -1.22755400      1.14793400      1.69420200
| 22>  H     -0.70840100      2.32665500      0.47234800
| 23>  H     -2.62445800      2.72986500     -1.43955400
| 24>  H     -1.24132600      1.74201400     -1.90050300
| 25>  H     -2.90790800      1.18774500     -2.26961200
| 26>  C     -3.48910500     -0.50673900      1.44090400
| 27>  H     -4.39435900      0.04388500      1.72843600
| 28>  H     -3.74214700     -1.57004500      1.46162400
| 29>  H     -2.73589000     -0.31993700      2.20910500
| 30>  C     -1.11549300     -2.04751000      0.56306800
| 31>  H     -1.97822800     -2.71075400      0.63217000
| 32>  H     -0.23499700     -2.65268300      0.30189300
| 33>  H     -0.90699900     -1.57773300      1.52446200
| 34>  C     -1.71307900     -1.57353100     -1.87928800
| 35>  H     -0.87638400     -2.17082400     -2.26703700
| 36>  H     -2.58924600     -2.21846600     -1.78622400
| 37>  H     -1.89969600     -0.77333400     -2.59579900
| 38> *
| 39>
| 40>
| 41>                          ****END OF INPUT****

CARTESIAN COORDINATES (ANGSTROEM)
---------------------------------
  O     -0.325312   -0.119771   -0.620997
  C     -1.239325   -1.037155   -0.548106
  C     -3.056444   -0.064921    0.064542
  C     -2.311887    1.058446   -0.187580
  C     -2.274043    1.693817   -1.538541
  Fe     1.442825    0.067512    0.045236
  Cl     2.042581    2.024011   -0.747960
  C     -1.567856    1.790076    0.881454
  Cl     2.483690   -1.694302   -0.758402
  Cl     1.338384    0.024896    2.252472
  H     -3.686196   -0.420679   -0.747646
  H     -2.252915    2.536039    1.311389
  H     -1.227554    1.147934    1.694202
  H     -0.708401    2.326655    0.472348
  H     -2.624458    2.729865   -1.439554
  H     -1.241326    1.742014   -1.900503
  H     -2.907908    1.187745   -2.269612
  C     -3.489105   -0.506739    1.440904
  H     -4.394359    0.043885    1.728436
  H     -3.742147   -1.570045    1.461624
  H     -2.735890   -0.319937    2.209105
  C     -1.115493   -2.047510    0.563068
  H     -1.978228   -2.710754    0.632170
  H     -0.234997   -2.652683    0.301893
  H     -0.906999   -1.577733    1.524462
  C     -1.713079   -1.573531   -1.879288
  H     -0.876384   -2.170824   -2.267037
  H     -2.589246   -2.218466   -1.786224
  H     -1.899696   -0.773334   -2.595799

ORBITAL ENERGIES
----------------
                 SPIN UP ORBITALS
  NO   OCC          E(Eh)            E(eV)
   0   1.0000    -261.559914     -7117.4071
   1   1.0000    -104.782365     -2851.2731
   2   1.0000    -104.780191     -2851.2140
   3   1.0000    -104.780154     -2851.2129
   4   1.0000     -32.227763      -876.9620
   5   1.0000     -27.703912      -753.8618
   6   1.0000     -27.703301      -753.8452
   7   1.0000     -27.703138      -753.8407
   8   1.0000     -20.572733      -559.8125
   9   1.0000     -11.407751      -310.4207
  10   1.0000     -11.326011      -308.1964
  11   1.0000     -11.267420      -306.6021
  12   1.0000     -11.265534      -306.5508
  13   1.0000     -11.259913      -306.3978
  14   1.0000     -11.258641      -306.3632
  15   1.0000     -11.255547      -306.2790
  16   1.0000     -11.251187      -306.1604
  17   1.0000     -10.509001      -285.9645
  18   1.0000     -10.506780      -285.9040
  19   1.0000     -10.506715      -285.9022
  20   1.0000      -7.975872      -217.0345
  21   1.0000      -7.975054      -217.0122
  22   1.0000      -7.975014      -217.0112
  23   1.0000      -7.973639      -216.9737
  24   1.0000      -7.973521      -216.9705
  25   1.0000      -7.972879      -216.9531
  26   1.0000      -7.972827      -216.9517
  27   1.0000      -7.972794      -216.9508
  28   1.0000      -7.972749      -216.9495
  29   1.0000      -4.583055      -124.7113
  30   1.0000      -3.195934       -86.9658
  31   1.0000      -3.194869       -86.9368
  32   1.0000      -3.194488       -86.9264
  33   1.0000      -1.424138       -38.7528
  34   1.0000      -1.160086       -31.5676
  35   1.0000      -1.090132       -29.6640
  36   1.0000      -1.054460       -28.6933
  37   1.0000      -1.049056       -28.5463
  38   1.0000      -1.047063       -28.4920
  39   1.0000      -1.036617       -28.2078
  40   1.0000      -0.999678       -27.2026
  41   1.0000      -0.981678       -26.7128
  42   1.0000      -0.930928       -25.3318
  43   1.0000      -0.918853       -25.0033
  44   1.0000      -0.912495       -24.8303
  45   1.0000      -0.912360       -24.8266
  46   1.0000      -0.902713       -24.5641
  47   1.0000      -0.902504       -24.5584
  48   1.0000      -0.794382       -21.6162
  49   1.0000      -0.753813       -20.5123
  50   1.0000      -0.696424       -18.9507
  51   1.0000      -0.691269       -18.8104
  52   1.0000      -0.683770       -18.6063
  53   1.0000      -0.666832       -18.1454
  54   1.0000      -0.641460       -17.4550
  55   1.0000      -0.620690       -16.8898
  56   1.0000      -0.602814       -16.4034
  57   1.0000      -0.597176       -16.2500
  58   1.0000      -0.583417       -15.8756
  59   1.0000      -0.574844       -15.6423
  60   1.0000      -0.573412       -15.6033
  61   1.0000      -0.565473       -15.3873
  62   1.0000      -0.552710       -15.0400
  63   1.0000      -0.549428       -14.9507
  64   1.0000      -0.543096       -14.7784
  65   1.0000      -0.519766       -14.1435
  66   1.0000      -0.517679       -14.0868
  67   1.0000      -0.486063       -13.2264
  68   1.0000      -0.468337       -12.7441
  69   1.0000      -0.460441       -12.5292
  70   1.0000      -0.435768       -11.8578
  71   1.0000      -0.430873       -11.7247
  72   1.0000      -0.429365       -11.6836
  73   1.0000      -0.421112       -11.4590
  74   1.0000      -0.419405       -11.4126
  75   1.0000      -0.418926       -11.3996
  76   1.0000      -0.375970       -10.2307
  77   0.0000       0.010937         0.2976
  78   0.0000       0.021415         0.5827
  79   0.0000       0.022624         0.6156
  80   0.0000       0.030229         0.8226
  81   0.0000       0.038672         1.0523

                 SPIN DOWN ORBITALS
  NO   OCC          E(Eh)            E(eV)
   0   1.0000    -261.556362     -7117.3104
   1   1.0000    -104.780948     -2851.2346
   2   1.0000    -104.778727     -2851.1741
   3   1.0000    -104.778723     -2851.1740
   4   1.0000     -32.065719      -872.5526
   5   1.0000     -27.543696      -749.5021
   6   1.0000     -27.543612      -749.4998
   7   1.0000     -27.543282      -749.4908
   8   1.0000     -20.568130      -559.6873
   9   1.0000     -11.407652      -310.4180
  10   1.0000     -11.325970      -308.1953
  11   1.0000     -11.267189      -306.5958
  12   1.0000     -11.265431      -306.5480
  13   1.0000     -11.259889      -306.3972
  14   1.0000     -11.258638      -306.3631
  15   1.0000     -11.255571      -306.2797
  16   1.0000     -11.251214      -306.1611
  17   1.0000     -10.507482      -285.9231
  18   1.0000     -10.505209      -285.8613
  19   1.0000     -10.505192      -285.8608
  20   1.0000      -7.973372      -216.9665
  21   1.0000      -7.972773      -216.9502
  22   1.0000      -7.972703      -216.9483
  23   1.0000      -7.971171      -216.9066
  24   1.0000      -7.971116      -216.9051
  25   1.0000      -7.970462      -216.8873
  26   1.0000      -7.970425      -216.8863
  27   1.0000      -7.970370      -216.8848
  28   1.0000      -7.970333      -216.8838
  29   1.0000      -4.140772      -112.6761
  30   1.0000      -2.662444       -72.4488
  31   1.0000      -2.662399       -72.4475
  32   1.0000      -2.661848       -72.4326
  33   1.0000      -1.412443       -38.4345
  34   1.0000      -1.159209       -31.5437
  35   1.0000      -1.087429       -29.5905
  36   1.0000      -1.039723       -28.2923
  37   1.0000      -1.036101       -28.1937
  38   1.0000      -1.027825       -27.9685
  39   1.0000      -1.026180       -27.9238
  40   1.0000      -0.998883       -27.1810
  41   1.0000      -0.981573       -26.7100
  42   1.0000      -0.921590       -25.0777
  43   1.0000      -0.808332       -21.9958
  44   1.0000      -0.753952       -20.5161
  45   1.0000      -0.696727       -18.9589
  46   1.0000      -0.693299       -18.8656
  47   1.0000      -0.683146       -18.5894
  48   1.0000      -0.666123       -18.1261
  49   1.0000      -0.641372       -17.4526
  50   1.0000      -0.620489       -16.8844
  51   1.0000      -0.602073       -16.3832
  52   1.0000      -0.597116       -16.2483
  53   1.0000      -0.583245       -15.8709
  54   1.0000      -0.574541       -15.6341
  55   1.0000      -0.573242       -15.5987
  56   1.0000      -0.565228       -15.3806
  57   1.0000      -0.552391       -15.0313
  58   1.0000      -0.548651       -14.9296
  59   1.0000      -0.539050       -14.6683
  60   1.0000      -0.518601       -14.1119
  61   1.0000      -0.510422       -13.8893
  62   1.0000      -0.483979       -13.1698
  63   1.0000      -0.472757       -12.8644
  64   1.0000      -0.470966       -12.8156
  65   1.0000      -0.443443       -12.0667
  66   1.0000      -0.440435       -11.9848
  67   1.0000      -0.438557       -11.9337
  68   1.0000      -0.424780       -11.5589
  69   1.0000      -0.418889       -11.3985
  70   1.0000      -0.404979       -11.0200
  71   1.0000      -0.374016       -10.1775
  72   0.0000       0.010933         0.2975
  73   0.0000       0.021387         0.5820
  74   0.0000       0.022601         0.6150
  75   0.0000       0.030248         0.8231
  76   0.0000       0.038612         1.0507

E(0)                                       ...  -3028.428162229
E(0)                                       ...  -3028.428162229
E(CORR)(strong-pairs)                      ...     -2.872917666
E(CORR)(weak-pairs)                        ...     -0.036007336
E(CORR)(corrected)                         ...     -2.908925002
E(TOT)                                     ...  -3031.337087230
E(CCSD(T))                                 ...  -3031.456836685
FINAL SINGLE POINT ENERGY     -3031.456836685070

DIPOLE MOMENT
-------------
                                X             Y             Z
Electronic contribution:     41.95543       2.89366       2.28010
Nuclear contribution   :    -46.17465      -3.34136      -2.81451
                        -----------------------------------------
Total Dipole Moment    :     -4.21922      -0.44770      -0.53441
                        -----------------------------------------
Magnitude (a.u.)       :      4.27643
Magnitude (Debye)      :     10.86983

Rotational constants in cm-1:     0.019395     0.011224     0.010513
Rotational constants in MHz :   581.447986   336.475206   315.166567

                             ****ORCA TERMINATED NORMALLY****
TOTAL RUN TIME: 0 days 20 hours 48 minutes 57 seconds 433 msec
