                         Program Version 4.1.2  - RELEASE  -
|  1> ! aug-cc-pVTZ aug-cc-pVTZ/C DLPNO-CCSD(T1) TightSCF NormalPNO UNO MiniPrint AutoAux
|  2> %pal nproc 10 end
|  3> %maxcore 20000
|  4> %mdci
|  5>      density none
|  6> end
|  7>
|  8> * xyz 0 6
|  9>  O     -0.32851100     -0.14869700     -0.70342000
| 10>  C     -1.25233900     -1.07399000     -0.57776500
| 11>  C     -2.82723100     -0.24115200      0.33113100
| 12>  C     -2.41486300      0.99916100     -0.12713100
| 13>  C     -2.77408600      1.50841100     -1.48012100
| 14> Fe      1.40526900      0.10203500      0.00018700
| 15> Cl      1.97574500      2.09089600     -0.74177000
| 16>  C     -1.57319600      1.91366100      0.68742900
| 17> Cl      2.59987400     -1.58572300     -0.74255300
| 18> Cl      1.19741000      0.05678500      2.21460100
| 19>  H     -3.61061800     -0.72105100     -0.25245900
| 20>  H     -2.24846900      2.66226700      1.13170700
| 21>  H     -1.04505800      1.41842800      1.50061800
| 22>  H     -0.85392600      2.45282600      0.06379800
| 23>  H     -3.13879200      2.53906400     -1.38846300
| 24>  H     -1.86256100      1.55858500     -2.09057800
| 25>  H     -3.53149800      0.90774700     -1.98593800
| 26>  C     -2.84869300     -0.57364000      1.81057700
| 27>  H     -3.64816200     -0.00478200      2.30079000
| 28>  H     -3.05819200     -1.63327900      1.97033600
| 29>  H     -1.91051300     -0.33389200      2.31550200
| 30>  C     -0.94341300     -2.21827100      0.36758200
| 31>  H     -1.78541900     -2.90385000      0.48273900
| 32>  H     -0.11252900     -2.76314900     -0.10088500
| 33>  H     -0.59659400     -1.87207000      1.34045200
| 34>  C     -1.83622400     -1.53512400     -1.90333700
| 35>  H     -1.03824100     -2.10329500     -2.39723700
| 36>  H     -2.69987900     -2.19189900     -1.77451200
| 37>  H     -2.08966900     -0.70261000     -2.55828800
| 38> *
| 39>
| 40>
| 41>                          ****END OF INPUT****

CARTESIAN COORDINATES (ANGSTROEM)
---------------------------------
  O     -0.328511   -0.148697   -0.703420
  C     -1.252339   -1.073990   -0.577765
  C     -2.827231   -0.241152    0.331131
  C     -2.414863    0.999161   -0.127131
  C     -2.774086    1.508411   -1.480121
  Fe     1.405269    0.102035    0.000187
  Cl     1.975745    2.090896   -0.741770
  C     -1.573196    1.913661    0.687429
  Cl     2.599874   -1.585723   -0.742553
  Cl     1.197410    0.056785    2.214601
  H     -3.610618   -0.721051   -0.252459
  H     -2.248469    2.662267    1.131707
  H     -1.045058    1.418428    1.500618
  H     -0.853926    2.452826    0.063798
  H     -3.138792    2.539064   -1.388463
  H     -1.862561    1.558585   -2.090578
  H     -3.531498    0.907747   -1.985938
  C     -2.848693   -0.573640    1.810577
  H     -3.648162   -0.004782    2.300790
  H     -3.058192   -1.633279    1.970336
  H     -1.910513   -0.333892    2.315502
  C     -0.943413   -2.218271    0.367582
  H     -1.785419   -2.903850    0.482739
  H     -0.112529   -2.763149   -0.100885
  H     -0.596594   -1.872070    1.340452
  C     -1.836224   -1.535124   -1.903337
  H     -1.038241   -2.103295   -2.397237
  H     -2.699879   -2.191899   -1.774512
  H     -2.089669   -0.702610   -2.558288

ORBITAL ENERGIES
----------------
                 SPIN UP ORBITALS
  NO   OCC          E(Eh)            E(eV)
   0   1.0000    -261.554261     -7117.2533
   1   1.0000    -104.779784     -2851.2029
   2   1.0000    -104.776092     -2851.1024
   3   1.0000    -104.775150     -2851.0768
   4   1.0000     -32.222145      -876.8091
   5   1.0000     -27.698143      -753.7048
   6   1.0000     -27.697787      -753.6951
   7   1.0000     -27.697566      -753.6891
   8   1.0000     -20.560160      -559.4704
   9   1.0000     -11.391981      -309.9916
  10   1.0000     -11.351649      -308.8941
  11   1.0000     -11.275245      -306.8150
  12   1.0000     -11.274541      -306.7959
  13   1.0000     -11.258328      -306.3547
  14   1.0000     -11.257826      -306.3410
  15   1.0000     -11.253651      -306.2274
  16   1.0000     -11.250138      -306.1318
  17   1.0000     -10.506397      -285.8936
  18   1.0000     -10.502671      -285.7922
  19   1.0000     -10.501760      -285.7674
  20   1.0000      -7.973285      -216.9641
  21   1.0000      -7.972419      -216.9406
  22   1.0000      -7.972383      -216.9396
  23   1.0000      -7.969483      -216.8607
  24   1.0000      -7.968777      -216.8414
  25   1.0000      -7.968700      -216.8393
  26   1.0000      -7.968605      -216.8368
  27   1.0000      -7.967859      -216.8165
  28   1.0000      -7.967786      -216.8145
  29   1.0000      -4.577439      -124.5584
  30   1.0000      -3.190062       -86.8060
  31   1.0000      -3.189419       -86.7885
  32   1.0000      -3.188993       -86.7769
  33   1.0000      -1.404105       -38.2076
  34   1.0000      -1.173329       -31.9279
  35   1.0000      -1.084853       -29.5203
  36   1.0000      -1.050575       -28.5876
  37   1.0000      -1.045065       -28.4377
  38   1.0000      -1.042475       -28.3672
  39   1.0000      -1.041752       -28.3475
  40   1.0000      -0.997123       -27.1331
  41   1.0000      -0.983768       -26.7697
  42   1.0000      -0.930005       -25.3067
  43   1.0000      -0.918349       -24.9895
  44   1.0000      -0.906825       -24.6760
  45   1.0000      -0.906706       -24.6727
  46   1.0000      -0.897892       -24.4329
  47   1.0000      -0.897234       -24.4150
  48   1.0000      -0.787934       -21.4408
  49   1.0000      -0.762279       -20.7427
  50   1.0000      -0.696275       -18.9466
  51   1.0000      -0.691541       -18.8178
  52   1.0000      -0.675378       -18.3780
  53   1.0000      -0.657855       -17.9011
  54   1.0000      -0.648697       -17.6520
  55   1.0000      -0.625208       -17.0128
  56   1.0000      -0.601088       -16.3564
  57   1.0000      -0.594623       -16.1805
  58   1.0000      -0.586738       -15.9659
  59   1.0000      -0.576778       -15.6949
  60   1.0000      -0.573008       -15.5924
  61   1.0000      -0.562856       -15.3161
  62   1.0000      -0.553158       -15.0522
  63   1.0000      -0.551754       -15.0140
  64   1.0000      -0.540220       -14.7001
  65   1.0000      -0.524668       -14.2769
  66   1.0000      -0.515866       -14.0374
  67   1.0000      -0.478200       -13.0125
  68   1.0000      -0.463758       -12.6195
  69   1.0000      -0.456039       -12.4094
  70   1.0000      -0.430113       -11.7040
  71   1.0000      -0.427759       -11.6399
  72   1.0000      -0.426032       -11.5929
  73   1.0000      -0.417072       -11.3491
  74   1.0000      -0.415859       -11.3161
  75   1.0000      -0.414841       -11.2884
  76   1.0000      -0.386674       -10.5219
  77   0.0000       0.009064         0.2466
  78   0.0000       0.019884         0.5411
  79   0.0000       0.021486         0.5847
  80   0.0000       0.028000         0.7619
  81   0.0000       0.032656         0.8886

                 SPIN DOWN ORBITALS
  NO   OCC          E(Eh)            E(eV)
   0   1.0000    -261.550714     -7117.1568
   1   1.0000    -104.778433     -2851.1661
   2   1.0000    -104.774694     -2851.0644
   3   1.0000    -104.773690     -2851.0370
   4   1.0000     -32.060074      -872.3990
   5   1.0000     -27.538103      -749.3499
   6   1.0000     -27.537983      -749.3466
   7   1.0000     -27.537563      -749.3352
   8   1.0000     -20.555131      -559.3336
   9   1.0000     -11.391957      -309.9909
  10   1.0000     -11.351563      -308.8917
  11   1.0000     -11.275068      -306.8102
  12   1.0000     -11.274550      -306.7961
  13   1.0000     -11.258365      -306.3557
  14   1.0000     -11.257713      -306.3379
  15   1.0000     -11.253670      -306.2279
  16   1.0000     -11.250109      -306.1310
  17   1.0000     -10.504944      -285.8541
  18   1.0000     -10.501177      -285.7515
  19   1.0000     -10.500197      -285.7249
  20   1.0000      -7.970802      -216.8965
  21   1.0000      -7.970309      -216.8831
  22   1.0000      -7.970235      -216.8811
  23   1.0000      -7.967156      -216.7973
  24   1.0000      -7.966437      -216.7778
  25   1.0000      -7.966348      -216.7754
  26   1.0000      -7.966126      -216.7693
  27   1.0000      -7.965439      -216.7506
  28   1.0000      -7.965357      -216.7484
  29   1.0000      -4.135118      -112.5223
  30   1.0000      -2.656873       -72.2972
  31   1.0000      -2.656848       -72.2965
  32   1.0000      -2.655987       -72.2731
  33   1.0000      -1.391274       -37.8585
  34   1.0000      -1.172405       -31.9028
  35   1.0000      -1.082126       -29.4461
  36   1.0000      -1.041311       -28.3355
  37   1.0000      -1.036238       -28.1975
  38   1.0000      -1.024533       -27.8790
  39   1.0000      -1.021664       -27.8009
  40   1.0000      -0.996862       -27.1260
  41   1.0000      -0.983042       -26.7499
  42   1.0000      -0.927256       -25.2319
  43   1.0000      -0.800244       -21.7758
  44   1.0000      -0.763258       -20.7693
  45   1.0000      -0.696983       -18.9659
  46   1.0000      -0.690825       -18.7983
  47   1.0000      -0.677028       -18.4229
  48   1.0000      -0.657482       -17.8910
  49   1.0000      -0.648146       -17.6369
  50   1.0000      -0.624816       -17.0021
  51   1.0000      -0.600101       -16.3296
  52   1.0000      -0.594847       -16.1866
  53   1.0000      -0.586522       -15.9601
  54   1.0000      -0.576362       -15.6836
  55   1.0000      -0.572851       -15.5881
  56   1.0000      -0.562614       -15.3095
  57   1.0000      -0.552900       -15.0452
  58   1.0000      -0.551044       -14.9947
  59   1.0000      -0.534991       -14.5578
  60   1.0000      -0.524602       -14.2751
  61   1.0000      -0.506722       -13.7886
  62   1.0000      -0.476629       -12.9697
  63   1.0000      -0.468618       -12.7517
  64   1.0000      -0.465377       -12.6636
  65   1.0000      -0.439697       -11.9648
  66   1.0000      -0.436790       -11.8857
  67   1.0000      -0.434972       -11.8362
  68   1.0000      -0.422422       -11.4947
  69   1.0000      -0.415068       -11.2946
  70   1.0000      -0.401718       -10.9313
  71   1.0000      -0.382912       -10.4196
  72   0.0000       0.009063         0.2466
  73   0.0000       0.019841         0.5399
  74   0.0000       0.021471         0.5842
  75   0.0000       0.027777         0.7558
  76   0.0000       0.032437         0.8826

E(0)                                       ...  -3028.426217945
E(0)                                       ...  -3028.426217945
E(CORR)(strong-pairs)                      ...     -2.873780635
E(CORR)(weak-pairs)                        ...     -0.036208850
E(CORR)(corrected)                         ...     -2.909989484
E(TOT)                                     ...  -3031.336207430
E(CCSD(T))                                 ...  -3031.456051042
FINAL SINGLE POINT ENERGY     -3031.456051042115

DIPOLE MOMENT
-------------
                                X             Y             Z
Electronic contribution:     40.58823       4.48049       1.89978
Nuclear contribution   :    -45.16169      -4.70941      -2.40787
                        -----------------------------------------
Total Dipole Moment    :     -4.57346      -0.22891      -0.50808
                        -----------------------------------------
Magnitude (a.u.)       :      4.60728
Magnitude (Debye)      :     11.71078

Rotational constants in cm-1:     0.019130     0.011490     0.010735
Rotational constants in MHz :   573.496641   344.450955   321.821537

                             ****ORCA TERMINATED NORMALLY****
TOTAL RUN TIME: 0 days 21 hours 12 minutes 23 seconds 54 msec
