                         Program Version 4.1.2  - RELEASE  -
|  1> ! aug-cc-pVTZ aug-cc-pVTZ/C DLPNO-CCSD(T1) TightSCF NormalPNO UNO MiniPrint AutoAux
|  2> %pal nproc 10 end
|  3> %maxcore 20000
|  4> %mdci
|  5>      density none
|  6> end
|  7>
|  8> * xyz 0 6
|  9>  O     -0.31814700     -0.33879500     -0.68221000
| 10>  C     -1.44647300     -1.20274700     -0.46550000
| 11>  C     -2.63309900     -0.22094800     -0.03191900
| 12>  C     -2.01964500      1.14261200     -0.23461800
| 13>  C     -2.01531000      1.77580300     -1.56468600
| 14> Fe      1.35117700      0.03284800      0.01117700
| 15> Cl      1.65898500      2.09997100     -0.76679000
| 16>  C     -1.56029800      1.94406500      0.90791900
| 17> Cl      2.78321900     -1.49188700     -0.64078700
| 18> Cl      1.12401700      0.09132800      2.23901100
| 19>  H     -3.43788600     -0.32561300     -0.77002400
| 20>  H     -2.46443700      2.27835700      1.44428900
| 21>  H     -0.98952000      1.33941000      1.62308400
| 22>  H     -0.97376400      2.81105500      0.60233600
| 23>  H     -2.67312200      2.65929600     -1.51614700
| 24>  H     -1.00405800      2.15443400     -1.76679000
| 25>  H     -2.34895300      1.11591900     -2.36438000
| 26>  C     -3.22045200     -0.44586900      1.36421500
| 27>  H     -4.01805400      0.27549500      1.57371300
| 28>  H     -3.66037100     -1.44468200      1.42000600
| 29>  H     -2.46882400     -0.36797800      2.15275200
| 30>  C     -1.10461600     -2.25684400      0.58281500
| 31>  H     -1.93125400     -2.95714400      0.74009300
| 32>  H     -0.24238600     -2.82413400      0.21594200
| 33>  H     -0.82285000     -1.80851700      1.53687700
| 34>  C     -1.77389400     -1.87196600     -1.80031900
| 35>  H     -0.91355700     -2.46681800     -2.12080900
| 36>  H     -2.64544100     -2.53041600     -1.70931900
| 37>  H     -1.97397700     -1.12699500     -2.57636300
| 38> *
| 39>
| 40>
| 41>                          ****END OF INPUT****

CARTESIAN COORDINATES (ANGSTROEM)
---------------------------------
  O     -0.318147   -0.338795   -0.682210
  C     -1.446473   -1.202747   -0.465500
  C     -2.633099   -0.220948   -0.031919
  C     -2.019645    1.142612   -0.234618
  C     -2.015310    1.775803   -1.564686
  Fe     1.351177    0.032848    0.011177
  Cl     1.658985    2.099971   -0.766790
  C     -1.560298    1.944065    0.907919
  Cl     2.783219   -1.491887   -0.640787
  Cl     1.124017    0.091328    2.239011
  H     -3.437886   -0.325613   -0.770024
  H     -2.464437    2.278357    1.444289
  H     -0.989520    1.339410    1.623084
  H     -0.973764    2.811055    0.602336
  H     -2.673122    2.659296   -1.516147
  H     -1.004058    2.154434   -1.766790
  H     -2.348953    1.115919   -2.364380
  C     -3.220452   -0.445869    1.364215
  H     -4.018054    0.275495    1.573713
  H     -3.660371   -1.444682    1.420006
  H     -2.468824   -0.367978    2.152752
  C     -1.104616   -2.256844    0.582815
  H     -1.931254   -2.957144    0.740093
  H     -0.242386   -2.824134    0.215942
  H     -0.822850   -1.808517    1.536877
  C     -1.773894   -1.871966   -1.800319
  H     -0.913557   -2.466818   -2.120809
  H     -2.645441   -2.530416   -1.709319
  H     -1.973977   -1.126995   -2.576363

ORBITAL ENERGIES
----------------
                 SPIN UP ORBITALS
  NO   OCC          E(Eh)            E(eV)
   0   1.0000    -261.542853     -7116.9428
   1   1.0000    -104.774351     -2851.0550
   2   1.0000    -104.773407     -2851.0294
   3   1.0000    -104.767477     -2850.8680
   4   1.0000     -32.210704      -876.4978
   5   1.0000     -27.686692      -753.3932
   6   1.0000     -27.686457      -753.3868
   7   1.0000     -27.686071      -753.3763
   8   1.0000     -20.538762      -558.8881
   9   1.0000     -11.417327      -310.6813
  10   1.0000     -11.330499      -308.3185
  11   1.0000     -11.296755      -307.4003
  12   1.0000     -11.288932      -307.1875
  13   1.0000     -11.282285      -307.0066
  14   1.0000     -11.263982      -306.5085
  15   1.0000     -11.236501      -305.7607
  16   1.0000     -11.229175      -305.5614
  17   1.0000     -10.500972      -285.7460
  18   1.0000     -10.499941      -285.7179
  19   1.0000     -10.494057      -285.5578
  20   1.0000      -7.967866      -216.8167
  21   1.0000      -7.966966      -216.7922
  22   1.0000      -7.966941      -216.7915
  23   1.0000      -7.966799      -216.7876
  24   1.0000      -7.966011      -216.7662
  25   1.0000      -7.965908      -216.7634
  26   1.0000      -7.960839      -216.6254
  27   1.0000      -7.960188      -216.6077
  28   1.0000      -7.960094      -216.6052
  29   1.0000      -4.566173      -124.2519
  30   1.0000      -3.178689       -86.4965
  31   1.0000      -3.178243       -86.4844
  32   1.0000      -3.177945       -86.4763
  33   1.0000      -1.343573       -36.5605
  34   1.0000      -1.188517       -32.3412
  35   1.0000      -1.097854       -29.8741
  36   1.0000      -1.044507       -28.4225
  37   1.0000      -1.039609       -28.2892
  38   1.0000      -1.037519       -28.2323
  39   1.0000      -1.035023       -28.1644
  40   1.0000      -1.020490       -27.7689
  41   1.0000      -0.962909       -26.2021
  42   1.0000      -0.933568       -25.4037
  43   1.0000      -0.901146       -24.5214
  44   1.0000      -0.895742       -24.3744
  45   1.0000      -0.895602       -24.3706
  46   1.0000      -0.888440       -24.1757
  47   1.0000      -0.887565       -24.1519
  48   1.0000      -0.807346       -21.9690
  49   1.0000      -0.759022       -20.6540
  50   1.0000      -0.708088       -19.2681
  51   1.0000      -0.690973       -18.8023
  52   1.0000      -0.677124       -18.4255
  53   1.0000      -0.637116       -17.3368
  54   1.0000      -0.632018       -17.1981
  55   1.0000      -0.623926       -16.9779
  56   1.0000      -0.604578       -16.4514
  57   1.0000      -0.600068       -16.3287
  58   1.0000      -0.594898       -16.1880
  59   1.0000      -0.583516       -15.8783
  60   1.0000      -0.578758       -15.7488
  61   1.0000      -0.555628       -15.1194
  62   1.0000      -0.545914       -14.8551
  63   1.0000      -0.537383       -14.6229
  64   1.0000      -0.522807       -14.2263
  65   1.0000      -0.519486       -14.1359
  66   1.0000      -0.500780       -13.6269
  67   1.0000      -0.467905       -12.7323
  68   1.0000      -0.467094       -12.7103
  69   1.0000      -0.445784       -12.1304
  70   1.0000      -0.437623       -11.9083
  71   1.0000      -0.424098       -11.5403
  72   1.0000      -0.420086       -11.4311
  73   1.0000      -0.416247       -11.3267
  74   1.0000      -0.412206       -11.2167
  75   1.0000      -0.411204       -11.1894
  76   1.0000      -0.408327       -11.1111
  77   0.0000       0.003797         0.1033
  78   0.0000       0.013986         0.3806
  79   0.0000       0.020042         0.5454
  80   0.0000       0.020961         0.5704
  81   0.0000       0.030314         0.8249

                 SPIN DOWN ORBITALS
  NO   OCC          E(Eh)            E(eV)
   0   1.0000    -261.539312     -7116.8465
   1   1.0000    -104.773066     -2851.0201
   2   1.0000    -104.772155     -2850.9953
   3   1.0000    -104.766046     -2850.8290
   4   1.0000     -32.048685      -872.0890
   5   1.0000     -27.526859      -749.0439
   6   1.0000     -27.526619      -749.0374
   7   1.0000     -27.526002      -749.0206
   8   1.0000     -20.532161      -558.7085
   9   1.0000     -11.417360      -310.6822
  10   1.0000     -11.330231      -308.3113
  11   1.0000     -11.296661      -307.3978
  12   1.0000     -11.288913      -307.1870
  13   1.0000     -11.282306      -307.0072
  14   1.0000     -11.263984      -306.5086
  15   1.0000     -11.236428      -305.7587
  16   1.0000     -11.229153      -305.5608
  17   1.0000     -10.499583      -285.7082
  18   1.0000     -10.498591      -285.6812
  19   1.0000     -10.492527      -285.5162
  20   1.0000      -7.965412      -216.7499
  21   1.0000      -7.965021      -216.7392
  22   1.0000      -7.964944      -216.7371
  23   1.0000      -7.964515      -216.7255
  24   1.0000      -7.964028      -216.7122
  25   1.0000      -7.963930      -216.7096
  26   1.0000      -7.958541      -216.5629
  27   1.0000      -7.957733      -216.5409
  28   1.0000      -7.957667      -216.5391
  29   1.0000      -4.124080      -112.2219
  30   1.0000      -2.646081       -72.0035
  31   1.0000      -2.645924       -71.9993
  32   1.0000      -2.645055       -71.9756
  33   1.0000      -1.326490       -36.0956
  34   1.0000      -1.186775       -32.2938
  35   1.0000      -1.095082       -29.7987
  36   1.0000      -1.036411       -28.2022
  37   1.0000      -1.030581       -28.0435
  38   1.0000      -1.022499       -27.8236
  39   1.0000      -1.018304       -27.7095
  40   1.0000      -1.014758       -27.6130
  41   1.0000      -0.962124       -26.1807
  42   1.0000      -0.931405       -25.3448
  43   1.0000      -0.810151       -22.0453
  44   1.0000      -0.764479       -20.8025
  45   1.0000      -0.708805       -19.2876
  46   1.0000      -0.690977       -18.8024
  47   1.0000      -0.677610       -18.4387
  48   1.0000      -0.637543       -17.3484
  49   1.0000      -0.633708       -17.2441
  50   1.0000      -0.622291       -16.9334
  51   1.0000      -0.604923       -16.4608
  52   1.0000      -0.599704       -16.3188
  53   1.0000      -0.593422       -16.1478
  54   1.0000      -0.583102       -15.8670
  55   1.0000      -0.577231       -15.7073
  56   1.0000      -0.555372       -15.1125
  57   1.0000      -0.542020       -14.7491
  58   1.0000      -0.536628       -14.6024
  59   1.0000      -0.519814       -14.1448
  60   1.0000      -0.515756       -14.0344
  61   1.0000      -0.497993       -13.5511
  62   1.0000      -0.467647       -12.7253
  63   1.0000      -0.463998       -12.6260
  64   1.0000      -0.451470       -12.2851
  65   1.0000      -0.446562       -12.1516
  66   1.0000      -0.434921       -11.8348
  67   1.0000      -0.430064       -11.7026
  68   1.0000      -0.429570       -11.6892
  69   1.0000      -0.409426       -11.1410
  70   1.0000      -0.401545       -10.9266
  71   1.0000      -0.397751       -10.8233
  72   0.0000       0.003715         0.1011
  73   0.0000       0.013471         0.3666
  74   0.0000       0.020004         0.5443
  75   0.0000       0.020908         0.5689
  76   0.0000       0.030345         0.8257

E(0)                                       ...  -3028.434102009
E(0)                                       ...  -3028.434102009
E(CORR)(strong-pairs)                      ...     -2.869193482
E(CORR)(weak-pairs)                        ...     -0.035655013
E(CORR)(corrected)                         ...     -2.904848495
E(TOT)                                     ...  -3031.338950505
E(CCSD(T))                                 ...  -3031.456303604
FINAL SINGLE POINT ENERGY     -3031.456303604207

DIPOLE MOMENT
-------------
                                X             Y             Z
Electronic contribution:     39.07079       4.88036       2.28124
Nuclear contribution   :    -44.03951      -4.19133      -2.65718
                        -----------------------------------------
Total Dipole Moment    :     -4.96872       0.68903      -0.37595
                        -----------------------------------------
Magnitude (a.u.)       :      5.03033
Magnitude (Debye)      :     12.78609

Rotational constants in cm-1:     0.018813     0.012184     0.010972
Rotational constants in MHz :   563.988268   365.257812   328.934444

                             ****ORCA TERMINATED NORMALLY****
TOTAL RUN TIME: 0 days 21 hours 2 minutes 24 seconds 904 msec
