                         Program Version 4.1.2  - RELEASE  -
|  1> ! aug-cc-pVTZ aug-cc-pVTZ/C DLPNO-CCSD(T1) TightSCF NormalPNO UNO MiniPrint AutoAux
|  2> %pal nproc 10 end
|  3> %maxcore 20000
|  4> %mdci
|  5>      density none
|  6> end
|  7>
|  8> * xyz 0 6
|  9>  O     -0.28620600     -0.14610200     -0.43164000
| 10>  C     -1.17432900     -1.06453200     -0.14908800
| 11>  C     -2.58192700     -0.19524400      0.88314900
| 12>  C     -3.16377600      0.62696300     -0.08246900
| 13>  C     -4.33481300      0.19261700     -0.89353600
| 14> Fe      1.55884600      0.16567500     -0.11011400
| 15> Cl      1.93118300      2.07375100     -1.12324300
| 16>  C     -2.52520600      1.92353700     -0.41221500
| 17> Cl      2.52291400     -1.60648600     -0.98714800
| 18> Cl      1.87787500      0.28808400      2.06939700
| 19>  H     -3.17236700     -1.07705700      1.13216500
| 20>  H     -3.04627000      2.47320300     -1.19842100
| 21>  H     -2.41096800      2.56042700      0.47221900
| 22>  H     -1.49268500      1.69404200     -0.74132300
| 23>  H     -5.17258100      0.87071800     -0.67383900
| 24>  H     -4.13564500      0.29772100     -1.96743400
| 25>  H     -4.65205600     -0.82883600     -0.67510700
| 26>  C     -1.84118500      0.43847500      2.05278900
| 27>  H     -2.47411500      1.19218900      2.53420100
| 28>  H     -1.58922900     -0.30917700      2.80559500
| 29>  H     -0.91300800      0.91939700      1.73958400
| 30>  C     -0.74104200     -2.10774300      0.87805600
| 31>  H     -1.56412700     -2.75436300      1.19105300
| 32>  H      0.01494900     -2.72306400      0.37375200
| 33>  H     -0.26312300     -1.65318000      1.74537700
| 34>  C     -1.82764600     -1.67096100     -1.38164500
| 35>  H     -1.08052600     -2.32760900     -1.84242100
| 36>  H     -2.70938800     -2.27021400     -1.13934100
| 37>  H     -2.08317500     -0.90252700     -2.11330700
| 38> *
| 39>
| 40>
| 41>                          ****END OF INPUT****

CARTESIAN COORDINATES (ANGSTROEM)
---------------------------------
  O     -0.286206   -0.146102   -0.431640
  C     -1.174329   -1.064532   -0.149088
  C     -2.581927   -0.195244    0.883149
  C     -3.163776    0.626963   -0.082469
  C     -4.334813    0.192617   -0.893536
  Fe     1.558846    0.165675   -0.110114
  Cl     1.931183    2.073751   -1.123243
  C     -2.525206    1.923537   -0.412215
  Cl     2.522914   -1.606486   -0.987148
  Cl     1.877875    0.288084    2.069397
  H     -3.172367   -1.077057    1.132165
  H     -3.046270    2.473203   -1.198421
  H     -2.410968    2.560427    0.472219
  H     -1.492685    1.694042   -0.741323
  H     -5.172581    0.870718   -0.673839
  H     -4.135645    0.297721   -1.967434
  H     -4.652056   -0.828836   -0.675107
  C     -1.841185    0.438475    2.052789
  H     -2.474115    1.192189    2.534201
  H     -1.589229   -0.309177    2.805595
  H     -0.913008    0.919397    1.739584
  C     -0.741042   -2.107743    0.878056
  H     -1.564127   -2.754363    1.191053
  H      0.014949   -2.723064    0.373752
  H     -0.263123   -1.653180    1.745377
  C     -1.827646   -1.670961   -1.381645
  H     -1.080526   -2.327609   -1.842421
  H     -2.709388   -2.270214   -1.139341
  H     -2.083175   -0.902527   -2.113307

ORBITAL ENERGIES
----------------
                 SPIN UP ORBITALS
  NO   OCC          E(Eh)            E(eV)
   0   1.0000    -261.549802     -7117.1319
   1   1.0000    -104.773712     -2851.0376
   2   1.0000    -104.771061     -2850.9655
   3   1.0000    -104.771055     -2850.9654
   4   1.0000     -32.217667      -876.6873
   5   1.0000     -27.693799      -753.5866
   6   1.0000     -27.693195      -753.5702
   7   1.0000     -27.693059      -753.5665
   8   1.0000     -20.563408      -559.5588
   9   1.0000     -11.385513      -309.8156
  10   1.0000     -11.359060      -309.0957
  11   1.0000     -11.290114      -307.2196
  12   1.0000     -11.278664      -306.9080
  13   1.0000     -11.269684      -306.6637
  14   1.0000     -11.257255      -306.3255
  15   1.0000     -11.249548      -306.1158
  16   1.0000     -11.248687      -306.0923
  17   1.0000     -10.500374      -285.7297
  18   1.0000     -10.497692      -285.6567
  19   1.0000     -10.497660      -285.6559
  20   1.0000      -7.967236      -216.7995
  21   1.0000      -7.966433      -216.7777
  22   1.0000      -7.966395      -216.7766
  23   1.0000      -7.964563      -216.7268
  24   1.0000      -7.964472      -216.7243
  25   1.0000      -7.963786      -216.7056
  26   1.0000      -7.963786      -216.7056
  27   1.0000      -7.963703      -216.7034
  28   1.0000      -7.963691      -216.7030
  29   1.0000      -4.572959      -124.4365
  30   1.0000      -3.185761       -86.6890
  31   1.0000      -3.184806       -86.6630
  32   1.0000      -3.184453       -86.6534
  33   1.0000      -1.400832       -38.1186
  34   1.0000      -1.181084       -32.1389
  35   1.0000      -1.079566       -29.3765
  36   1.0000      -1.045780       -28.4571
  37   1.0000      -1.044441       -28.4207
  38   1.0000      -1.039805       -28.2945
  39   1.0000      -1.037931       -28.2435
  40   1.0000      -1.007169       -27.4065
  41   1.0000      -0.982487       -26.7348
  42   1.0000      -0.924982       -25.1700
  43   1.0000      -0.916811       -24.9477
  44   1.0000      -0.902270       -24.5520
  45   1.0000      -0.902252       -24.5515
  46   1.0000      -0.892838       -24.2954
  47   1.0000      -0.892408       -24.2837
  48   1.0000      -0.791034       -21.5251
  49   1.0000      -0.767403       -20.8821
  50   1.0000      -0.697023       -18.9670
  51   1.0000      -0.689704       -18.7678
  52   1.0000      -0.669382       -18.2148
  53   1.0000      -0.664921       -18.0934
  54   1.0000      -0.656436       -17.8625
  55   1.0000      -0.630533       -17.1577
  56   1.0000      -0.605243       -16.4695
  57   1.0000      -0.594436       -16.1754
  58   1.0000      -0.592284       -16.1169
  59   1.0000      -0.578693       -15.7470
  60   1.0000      -0.576279       -15.6813
  61   1.0000      -0.565383       -15.3849
  62   1.0000      -0.559650       -15.2289
  63   1.0000      -0.543965       -14.8020
  64   1.0000      -0.531826       -14.4717
  65   1.0000      -0.526683       -14.3318
  66   1.0000      -0.509992       -13.8776
  67   1.0000      -0.473955       -12.8970
  68   1.0000      -0.459890       -12.5142
  69   1.0000      -0.450007       -12.2453
  70   1.0000      -0.427163       -11.6237
  71   1.0000      -0.423649       -11.5281
  72   1.0000      -0.420352       -11.4383
  73   1.0000      -0.412121       -11.2144
  74   1.0000      -0.410355       -11.1663
  75   1.0000      -0.409872       -11.1532
  76   1.0000      -0.392664       -10.6849
  77   0.0000       0.005061         0.1377
  78   0.0000       0.011850         0.3225
  79   0.0000       0.018678         0.5083
  80   0.0000       0.020102         0.5470
  81   0.0000       0.028395         0.7727

                 SPIN DOWN ORBITALS
  NO   OCC          E(Eh)            E(eV)
   0   1.0000    -261.546243     -7117.0351
   1   1.0000    -104.772290     -2850.9990
   2   1.0000    -104.769628     -2850.9265
   3   1.0000    -104.769603     -2850.9258
   4   1.0000     -32.055579      -872.2766
   5   1.0000     -27.533570      -749.2265
   6   1.0000     -27.533493      -749.2244
   7   1.0000     -27.533128      -749.2145
   8   1.0000     -20.558892      -559.4359
   9   1.0000     -11.385544      -309.8164
  10   1.0000     -11.358477      -309.0799
  11   1.0000     -11.290194      -307.2218
  12   1.0000     -11.278790      -306.9115
  13   1.0000     -11.269756      -306.6656
  14   1.0000     -11.257149      -306.3226
  15   1.0000     -11.249561      -306.1161
  16   1.0000     -11.248700      -306.0927
  17   1.0000     -10.498849      -285.6882
  18   1.0000     -10.496136      -285.6144
  19   1.0000     -10.496130      -285.6142
  20   1.0000      -7.964752      -216.7319
  21   1.0000      -7.964129      -216.7150
  22   1.0000      -7.964069      -216.7133
  23   1.0000      -7.962110      -216.6600
  24   1.0000      -7.962042      -216.6582
  25   1.0000      -7.961412      -216.6410
  26   1.0000      -7.961372      -216.6400
  27   1.0000      -7.961319      -216.6385
  28   1.0000      -7.961273      -216.6373
  29   1.0000      -4.130617      -112.3998
  30   1.0000      -2.652359       -72.1744
  31   1.0000      -2.652298       -72.1727
  32   1.0000      -2.651566       -72.1528
  33   1.0000      -1.389261       -37.8037
  34   1.0000      -1.179545       -32.0970
  35   1.0000      -1.077128       -29.3101
  36   1.0000      -1.044567       -28.4241
  37   1.0000      -1.030507       -28.0415
  38   1.0000      -1.018744       -27.7214
  39   1.0000      -1.017026       -27.6747
  40   1.0000      -1.007009       -27.4021
  41   1.0000      -0.981922       -26.7194
  42   1.0000      -0.924052       -25.1447
  43   1.0000      -0.803619       -21.8676
  44   1.0000      -0.769287       -20.9334
  45   1.0000      -0.697603       -18.9827
  46   1.0000      -0.689258       -18.7557
  47   1.0000      -0.671866       -18.2824
  48   1.0000      -0.664267       -18.0756
  49   1.0000      -0.655619       -17.8403
  50   1.0000      -0.630089       -17.1456
  51   1.0000      -0.604883       -16.4597
  52   1.0000      -0.594318       -16.1722
  53   1.0000      -0.591653       -16.0997
  54   1.0000      -0.578580       -15.7440
  55   1.0000      -0.576104       -15.6766
  56   1.0000      -0.565133       -15.3780
  57   1.0000      -0.559545       -15.2260
  58   1.0000      -0.543259       -14.7828
  59   1.0000      -0.531169       -14.4538
  60   1.0000      -0.523836       -14.2543
  61   1.0000      -0.501776       -13.6540
  62   1.0000      -0.471401       -12.8275
  63   1.0000      -0.464014       -12.6265
  64   1.0000      -0.460483       -12.5304
  65   1.0000      -0.434983       -11.8365
  66   1.0000      -0.432284       -11.7630
  67   1.0000      -0.430166       -11.7054
  68   1.0000      -0.420591       -11.4449
  69   1.0000      -0.409785       -11.1508
  70   1.0000      -0.395828       -10.7710
  71   1.0000      -0.388843       -10.5810
  72   0.0000       0.005061         0.1377
  73   0.0000       0.012521         0.3407
  74   0.0000       0.018686         0.5085
  75   0.0000       0.020059         0.5458
  76   0.0000       0.028384         0.7724

E(0)                                       ...  -3028.428642939
E(0)                                       ...  -3028.428642939
E(CORR)(strong-pairs)                      ...     -2.874983399
E(CORR)(weak-pairs)                        ...     -0.035173672
E(CORR)(corrected)                         ...     -2.910157071
E(TOT)                                     ...  -3031.338800010
E(CCSD(T))                                 ...  -3031.459546138
FINAL SINGLE POINT ENERGY     -3031.459546138461

DIPOLE MOMENT
-------------
                                X             Y             Z
Electronic contribution:     44.45489       5.79285      -2.04185
Nuclear contribution   :    -49.88372      -6.31609       2.03872
                        -----------------------------------------
Total Dipole Moment    :     -5.42883      -0.52324      -0.00312
                        -----------------------------------------
Magnitude (a.u.)       :      5.45399
Magnitude (Debye)      :     13.86294

Rotational constants in cm-1:     0.020309     0.009832     0.009429
Rotational constants in MHz :   608.850202   294.745662   282.678756

                             ****ORCA TERMINATED NORMALLY****
TOTAL RUN TIME: 0 days 21 hours 14 minutes 36 seconds 852 msec
