                         Program Version 4.1.2  - RELEASE  -
|  1> ! aug-cc-pVTZ aug-cc-pVTZ/C DLPNO-CCSD(T1) TightSCF NormalPNO UNO MiniPrint AutoAux
|  2> %pal nproc 10 end
|  3> %maxcore 20000
|  4> %mdci
|  5>      density none
|  6> end
|  7>
|  8> * xyz 0 6
|  9>  O      0.23584800      0.35265900     -0.83586700
| 10>  C      0.99279300      1.33312800     -0.64914700
| 11>  C      3.14655200      0.03082800      0.45892900
| 12>  C      2.56799300     -0.97271600     -0.23004500
| 13>  C      2.90179200     -1.22877900     -1.67475100
| 14> Fe     -1.46837300     -0.15001700      0.03123500
| 15> Cl     -2.09240800     -1.96388400     -0.99142700
| 16>  C      1.63536900     -1.98336000      0.37150200
| 17> Cl     -2.65782900      1.63730600     -0.40008300
| 18> Cl     -1.11497600     -0.39086200      2.18305600
| 19>  H      3.87197500      0.64824200     -0.07204800
| 20>  H      2.14773600     -2.95256400      0.44476700
| 21>  H      1.27770100     -1.71751600      1.36583900
| 22>  H      0.76727400     -2.14783900     -0.27728600
| 23>  H      3.32544800     -2.23522600     -1.78790600
| 24>  H      1.99526300     -1.20499800     -2.29342700
| 25>  H      3.62763500     -0.51298000     -2.07148700
| 26>  C      3.04837700      0.28356300      1.93883700
| 27>  H      3.89565700     -0.18168800      2.46113100
| 28>  H      3.09228300      1.35391300      2.16731600
| 29>  H      2.13244300     -0.11787900      2.37999300
| 30>  C      0.86245800      2.19211700      0.56805400
| 31>  H      1.74901300      2.80567000      0.73247400
| 32>  H      0.00567900      2.85776200      0.38419900
| 33>  H      0.62937600      1.60176800      1.45470000
| 34>  C      1.78376600      1.85309500     -1.80949700
| 35>  H      1.18701200      2.67000800     -2.24206200
| 36>  H      2.74165600      2.27240900     -1.49782900
| 37>  H      1.91879500      1.08932400     -2.57312600
| 38> *
| 39>
| 40>
| 41>                          ****END OF INPUT****

CARTESIAN COORDINATES (ANGSTROEM)
---------------------------------
  O      0.235848    0.352659   -0.835867
  C      0.992793    1.333128   -0.649147
  C      3.146552    0.030828    0.458929
  C      2.567993   -0.972716   -0.230045
  C      2.901792   -1.228779   -1.674751
  Fe    -1.468373   -0.150017    0.031235
  Cl    -2.092408   -1.963884   -0.991427
  C      1.635369   -1.983360    0.371502
  Cl    -2.657829    1.637306   -0.400083
  Cl    -1.114976   -0.390862    2.183056
  H      3.871975    0.648242   -0.072048
  H      2.147736   -2.952564    0.444767
  H      1.277701   -1.717516    1.365839
  H      0.767274   -2.147839   -0.277286
  H      3.325448   -2.235226   -1.787906
  H      1.995263   -1.204998   -2.293427
  H      3.627635   -0.512980   -2.071487
  C      3.048377    0.283563    1.938837
  H      3.895657   -0.181688    2.461131
  H      3.092283    1.353913    2.167316
  H      2.132443   -0.117879    2.379993
  C      0.862458    2.192117    0.568054
  H      1.749013    2.805670    0.732474
  H      0.005679    2.857762    0.384199
  H      0.629376    1.601768    1.454700
  C      1.783766    1.853095   -1.809497
  H      1.187012    2.670008   -2.242062
  H      2.741656    2.272409   -1.497829
  H      1.918795    1.089324   -2.573126

ORBITAL ENERGIES
----------------
                 SPIN UP ORBITALS
  NO   OCC          E(Eh)            E(eV)
   0   1.0000    -261.577721     -7117.8916
   1   1.0000    -104.794759     -2851.6104
   2   1.0000    -104.791904     -2851.5327
   3   1.0000    -104.790173     -2851.4856
   4   1.0000     -32.245386      -877.4416
   5   1.0000     -27.721898      -754.3512
   6   1.0000     -27.720708      -754.3188
   7   1.0000     -27.720527      -754.3139
   8   1.0000     -20.622416      -561.1645
   9   1.0000     -11.422402      -310.8194
  10   1.0000     -11.278720      -306.9096
  11   1.0000     -11.272783      -306.7480
  12   1.0000     -11.263067      -306.4836
  13   1.0000     -11.241143      -305.8870
  14   1.0000     -11.239864      -305.8523
  15   1.0000     -11.237066      -305.7761
  16   1.0000     -11.227535      -305.5168
  17   1.0000     -10.521484      -286.3041
  18   1.0000     -10.518602      -286.2257
  19   1.0000     -10.516817      -286.1771
  20   1.0000      -7.988309      -217.3729
  21   1.0000      -7.987570      -217.3528
  22   1.0000      -7.987512      -217.3513
  23   1.0000      -7.985497      -217.2964
  24   1.0000      -7.984692      -217.2745
  25   1.0000      -7.984634      -217.2729
  26   1.0000      -7.983599      -217.2448
  27   1.0000      -7.982944      -217.2269
  28   1.0000      -7.982902      -217.2258
  29   1.0000      -4.600180      -125.1773
  30   1.0000      -3.213328       -87.4391
  31   1.0000      -3.211541       -87.3905
  32   1.0000      -3.211426       -87.3873
  33   1.0000      -1.467801       -39.9409
  34   1.0000      -1.123155       -30.5626
  35   1.0000      -1.102758       -30.0076
  36   1.0000      -1.068173       -29.0665
  37   1.0000      -1.062450       -28.9107
  38   1.0000      -1.059867       -28.8404
  39   1.0000      -1.021249       -27.7896
  40   1.0000      -1.009753       -27.4768
  41   1.0000      -0.956268       -26.0214
  42   1.0000      -0.943977       -25.6869
  43   1.0000      -0.929053       -25.2808
  44   1.0000      -0.928933       -25.2775
  45   1.0000      -0.918070       -24.9820
  46   1.0000      -0.917497       -24.9663
  47   1.0000      -0.894326       -24.3359
  48   1.0000      -0.815510       -22.1912
  49   1.0000      -0.726706       -19.7747
  50   1.0000      -0.714349       -19.4384
  51   1.0000      -0.704695       -19.1757
  52   1.0000      -0.686291       -18.6749
  53   1.0000      -0.652813       -17.7640
  54   1.0000      -0.622003       -16.9256
  55   1.0000      -0.619167       -16.8484
  56   1.0000      -0.603604       -16.4249
  57   1.0000      -0.599960       -16.3257
  58   1.0000      -0.586298       -15.9540
  59   1.0000      -0.579601       -15.7718
  60   1.0000      -0.560831       -15.2610
  61   1.0000      -0.549621       -14.9560
  62   1.0000      -0.549193       -14.9443
  63   1.0000      -0.538025       -14.6404
  64   1.0000      -0.536215       -14.5912
  65   1.0000      -0.524659       -14.2767
  66   1.0000      -0.504925       -13.7397
  67   1.0000      -0.490760       -13.3543
  68   1.0000      -0.477878       -13.0037
  69   1.0000      -0.477593       -12.9960
  70   1.0000      -0.448008       -12.1909
  71   1.0000      -0.441711       -12.0196
  72   1.0000      -0.439982       -11.9725
  73   1.0000      -0.431369       -11.7382
  74   1.0000      -0.430268       -11.7082
  75   1.0000      -0.429195       -11.6790
  76   1.0000      -0.357122        -9.7178
  77   0.0000       0.012818         0.3488
  78   0.0000       0.023818         0.6481
  79   0.0000       0.024612         0.6697
  80   0.0000       0.030749         0.8367
  81   0.0000       0.039488         1.0745

                 SPIN DOWN ORBITALS
  NO   OCC          E(Eh)            E(eV)
   0   1.0000    -261.574139     -7117.7942
   1   1.0000    -104.793263     -2851.5697
   2   1.0000    -104.790347     -2851.4903
   3   1.0000    -104.788605     -2851.4429
   4   1.0000     -32.083411      -873.0340
   5   1.0000     -27.561353      -749.9825
   6   1.0000     -27.561240      -749.9795
   7   1.0000     -27.561152      -749.9771
   8   1.0000     -20.619033      -561.0724
   9   1.0000     -11.422317      -310.8170
  10   1.0000     -11.278616      -306.9067
  11   1.0000     -11.272779      -306.7479
  12   1.0000     -11.263122      -306.4851
  13   1.0000     -11.241058      -305.8847
  14   1.0000     -11.239856      -305.8520
  15   1.0000     -11.237075      -305.7763
  16   1.0000     -11.227543      -305.5170
  17   1.0000     -10.519886      -286.2607
  18   1.0000     -10.516939      -286.1805
  19   1.0000     -10.515152      -286.1318
  20   1.0000      -7.985813      -217.3050
  21   1.0000      -7.985055      -217.2844
  22   1.0000      -7.985014      -217.2833
  23   1.0000      -7.982801      -217.2231
  24   1.0000      -7.982144      -217.2052
  25   1.0000      -7.982048      -217.2026
  26   1.0000      -7.981147      -217.1781
  27   1.0000      -7.980234      -217.1532
  28   1.0000      -7.980155      -217.1510
  29   1.0000      -4.158128      -113.1484
  30   1.0000      -2.679676       -72.9177
  31   1.0000      -2.679615       -72.9160
  32   1.0000      -2.679197       -72.9046
  33   1.0000      -1.459518       -39.7155
  34   1.0000      -1.122856       -30.5545
  35   1.0000      -1.100540       -29.9472
  36   1.0000      -1.052498       -28.6399
  37   1.0000      -1.039916       -28.2976
  38   1.0000      -1.037041       -28.2193
  39   1.0000      -1.020411       -27.7668
  40   1.0000      -1.009384       -27.4667
  41   1.0000      -0.956091       -26.0166
  42   1.0000      -0.894442       -24.3390
  43   1.0000      -0.827737       -22.5239
  44   1.0000      -0.726779       -19.7767
  45   1.0000      -0.716152       -19.4875
  46   1.0000      -0.703907       -19.1543
  47   1.0000      -0.685689       -18.6586
  48   1.0000      -0.652759       -17.7625
  49   1.0000      -0.621443       -16.9103
  50   1.0000      -0.619091       -16.8463
  51   1.0000      -0.603407       -16.4195
  52   1.0000      -0.599887       -16.3237
  53   1.0000      -0.586051       -15.9473
  54   1.0000      -0.578467       -15.7409
  55   1.0000      -0.559796       -15.2328
  56   1.0000      -0.549594       -14.9552
  57   1.0000      -0.546824       -14.8798
  58   1.0000      -0.538054       -14.6412
  59   1.0000      -0.526699       -14.3322
  60   1.0000      -0.523146       -14.2355
  61   1.0000      -0.506479       -13.7820
  62   1.0000      -0.490456       -13.3460
  63   1.0000      -0.486443       -13.2368
  64   1.0000      -0.484215       -13.1762
  65   1.0000      -0.454967       -12.3803
  66   1.0000      -0.452073       -12.3015
  67   1.0000      -0.449043       -12.2191
  68   1.0000      -0.432497       -11.7688
  69   1.0000      -0.430644       -11.7184
  70   1.0000      -0.414425       -11.2771
  71   1.0000      -0.356613        -9.7039
  72   0.0000       0.012802         0.3484
  73   0.0000       0.023794         0.6475
  74   0.0000       0.024574         0.6687
  75   0.0000       0.030690         0.8351
  76   0.0000       0.039389         1.0718

E(0)                                       ...  -3028.466462876
E(0)                                       ...  -3028.466462876
E(CORR)(strong-pairs)                      ...     -2.867288599
E(CORR)(weak-pairs)                        ...     -0.035394602
E(CORR)(corrected)                         ...     -2.902683201
E(TOT)                                     ...  -3031.369146077
E(CCSD(T))                                 ...  -3031.487032937
FINAL SINGLE POINT ENERGY     -3031.487032936638

DIPOLE MOMENT
-------------
                                X             Y             Z
Electronic contribution:    -43.39820      -4.16864       1.96360
Nuclear contribution   :     46.61342       5.62156      -2.59177
                        -----------------------------------------
Total Dipole Moment    :      3.21522       1.45292      -0.62817
                        -----------------------------------------
Magnitude (a.u.)       :      3.58374
Magnitude (Debye)      :      9.10915

Rotational constants in cm-1:     0.018790     0.010791     0.010171
Rotational constants in MHz :   563.310284   323.502033   304.915127

                             ****ORCA TERMINATED NORMALLY****
TOTAL RUN TIME: 0 days 17 hours 37 minutes 37 seconds 274 msec
