 Gaussian 16, Revision A.03,
 Gaussian 16:  ES64L-G16RevA.03 25-Dec-2016

 ----------------------------------------------------------------------
 #p opt=(calcfc,ts,noeigentest,maxstep=5) freq=noraman b3lyp scrf=(solv
 ent=dichloroethane,pcm) pop=none empiricaldispersion=gd3bj jul-cc-pvdz
 ----------------------------------------------------------------------

 -----
 title
 -----
 Symbolic Z-matrix:
 Charge =  0 Multiplicity = 6

 SCF Done:  E(UB3LYP) =  -3531.56107871     A.U. after   24 cycles
 SCF Done:  E(UB3LYP) =  -3531.56107798     A.U. after    9 cycles
 Optimization completed.
    -- Stationary point found.
 Normal termination of Gaussian 16 at Tue Jul  6 00:32:30 2021.

 ----------------------------------------------------------------------
 #P Geom=AllCheck Guess=TCheck SCRF=Check GenChk UB3LYP/Jul-CC-pVDZ Fre
 q
 ----------------------------------------------------------------------

 Structure from the checkpoint file:  "/scratch/kwaneu.3011837.bmbhpcps002/Gau-41384.chk"
 -----
 title
 -----
 Charge =  0 Multiplicity = 6

                         Standard orientation:
 ---------------------------------------------------------------------
 Center     Atomic      Atomic             Coordinates (Angstroms)
 Number     Number       Type             X           Y           Z
 ---------------------------------------------------------------------
      1          6           0        2.913885    1.152151   -0.320366
      2          6           0        1.606834    0.760673   -0.654580
      3          6           0        1.377296    0.167483   -1.902164
      4          6           0        2.431507   -0.036994   -2.797324
      5          6           0        3.729023    0.346395   -2.454537
      6          6           0        3.966565    0.941843   -1.209252
      7          6           0        0.456817    0.974512    0.313691
      8          6           0        0.704322    0.446846    1.780584
      9          6           0        1.041993    1.646724    2.661365
     10          6           0        0.127345    2.746973    2.111406
     11          6           0        0.267417    2.601262    0.595298
     12          6           0       -0.839630    2.919470   -0.298870
     13          6           0       -0.516726    3.263589   -1.687925
     14          8           0       -0.730870    0.496182   -0.224433
     15         26           0       -1.954984   -0.871368   -0.240192
     16         17           0       -1.132093   -2.858260   -0.881864
     17          6           0       -2.235968    2.925567    0.135373
     18         17           0       -3.510608   -0.167866   -1.720551
     19         17           0       -2.896927   -0.973369    1.805405
     20          1           0        0.371799   -0.148890   -2.164100
     21          1           0        2.233746   -0.503738   -3.762608
     22          1           0        4.553101    0.183577   -3.149883
     23          1           0        4.976512    1.242435   -0.929607
     24          1           0        3.122226    1.616230    0.641842
     25          1           0       -0.269797    0.045164    2.085889
     26          6           0        1.696200   -0.694860    1.829369
     27          1           0        0.858489    1.436587    3.721285
     28          1           0        2.099550    1.920863    2.559056
     29          1           0       -0.902622    2.568347    2.440716
     30          1           0        0.414430    3.753211    2.438082
     31          1           0        1.187147    3.076200    0.241783
     32          1           0       -2.408924    2.413836    1.083596
     33          1           0       -2.491236    3.997666    0.267038
     34          1           0       -2.893825    2.542947   -0.654205
     35          1           0       -1.379422    3.227513   -2.357858
     36          1           0       -0.114148    4.293952   -1.665277
     37          1           0        0.313771    2.641143   -2.055947
     38          8           0        1.199360   -1.754067    1.181947
     39          8           0        2.782217   -0.658920    2.376855
     40          6           0        2.051109   -2.920574    1.011420
     41          6           0        2.890460   -2.784292   -0.244775
     42          1           0        2.665875   -3.039151    1.910682
     43          1           0        1.342656   -3.752156    0.935792
     44          1           0        3.493084   -3.694288   -0.377255
     45          1           0        2.247395   -2.657598   -1.124115
     46          1           0        3.567122   -1.923039   -0.178003
 ---------------------------------------------------------------------

 SCF Done:  E(UB3LYP) =  -3531.56107798     A.U. after    2 cycles

 Isotropic polarizability for W=    0.000000      405.55 Bohr**3.
 End of Minotr F.D. properties file   721 does not exist.

 ******    1 imaginary frequencies (negative Signs) ******

                      1                      2                      3
                      A                      A                      A
 Frequencies --   -100.0914                31.8062                36.5835
 Red. masses --      3.7155                 5.8653                 7.5856
 Frc consts  --      0.0219                 0.0035                 0.0060
 IR Inten    --     28.1342                 1.3106                 0.6035

                      4                      5                      6
                      A                      A                      A
 Frequencies --     41.5959                52.2975                53.8036
 Red. masses --      3.3317                 7.6022                 7.1094
 Frc consts  --      0.0034                 0.0123                 0.0121
 IR Inten    --      2.0875                 3.1324                 1.5527

                      7                      8                      9
                      A                      A                      A
 Frequencies --     64.4956                73.6488                77.1862
 Red. masses --      5.6881                 4.6084                 4.4657
 Frc consts  --      0.0139                 0.0147                 0.0157
 IR Inten    --      4.8211                 0.1497                 2.0253

                     10                     11                     12
                      A                      A                      A
 Frequencies --     89.9627                95.1620                98.8572
 Red. masses --      5.0192                 5.5524                 4.3903
 Frc consts  --      0.0239                 0.0296                 0.0253
 IR Inten    --      4.4507                13.5757                 1.9226

                     13                     14                     15
                      A                      A                      A
 Frequencies --    110.3018               112.9927               120.3240
 Red. masses --      4.2113                 3.1204                 2.6210
 Frc consts  --      0.0302                 0.0235                 0.0224
 IR Inten    --      3.0927                 0.0286                 8.1829

                     16                     17                     18
                      A                      A                      A
 Frequencies --    122.5745               134.2981               138.9260
 Red. masses --      3.7678                 2.9334                 1.6249
 Frc consts  --      0.0334                 0.0312                 0.0185
 IR Inten    --      1.7234                 2.7067                 0.7591

                     19                     20                     21
                      A                      A                      A
 Frequencies --    145.2551               167.3431               191.3539
 Red. masses --      6.8231                 3.4309                 3.7379
 Frc consts  --      0.0848                 0.0566                 0.0806
 IR Inten    --      2.6044                13.0791                28.1046

                     22                     23                     24
                      A                      A                      A
 Frequencies --    208.1352               225.5395               261.7543
 Red. masses --      2.8572                 1.4585                 5.0594
 Frc consts  --      0.0729                 0.0437                 0.2042
 IR Inten    --     13.7508                13.1559                 8.0149

                     25                     26                     27
                      A                      A                      A
 Frequencies --    265.7241               275.7660               309.0570
 Red. masses --      2.5623                 4.3660                 3.1406
 Frc consts  --      0.1066                 0.1956                 0.1767
 IR Inten    --     11.4671                13.3116                14.3875

                     28                     29                     30
                      A                      A                      A
 Frequencies --    322.5649               326.3874               339.5368
 Red. masses --      4.7341                 4.2011                 8.5602
 Frc consts  --      0.2902                 0.2637                 0.5814
 IR Inten    --     52.3043                10.9588                91.8434

                     31                     32                     33
                      A                      A                      A
 Frequencies --    349.6494               352.4606               366.1407
 Red. masses --      9.0032                16.1301                 7.4132
 Frc consts  --      0.6485                 1.1806                 0.5855
 IR Inten    --    115.9756               161.7946                98.6066

                     34                     35                     36
                      A                      A                      A
 Frequencies --    380.5545               413.1124               420.4652
 Red. masses --      3.5626                 2.9109                 3.8546
 Frc consts  --      0.3040                 0.2927                 0.4015
 IR Inten    --      0.2236                 0.8334                11.1492

                     37                     38                     39
                      A                      A                      A
 Frequencies --    455.8468               483.1545               503.6196
 Red. masses --      3.6022                 3.1373                 2.8282
 Frc consts  --      0.4410                 0.4315                 0.4226
 IR Inten    --      3.5638                 8.8703                11.9555

                     40                     41                     42
                      A                      A                      A
 Frequencies --    538.9638               550.3112               590.7431
 Red. masses --      2.9382                 3.0356                 3.2246
 Frc consts  --      0.5029                 0.5416                 0.6630
 IR Inten    --     10.5353                12.4960                43.7540

                     43                     44                     45
                      A                      A                      A
 Frequencies --    628.6514               638.9793               695.6626
 Red. masses --      5.8875                 3.8036                 4.5340
 Frc consts  --      1.3709                 0.9150                 1.2928
 IR Inten    --      2.1050                11.4141               144.7337

                     46                     47                     48
                      A                      A                      A
 Frequencies --    704.5623               713.1380               754.4154
 Red. masses --      1.7814                 2.8452                 2.2732
 Frc consts  --      0.5210                 0.8525                 0.7623
 IR Inten    --     42.2151               117.2360                19.5277

                     49                     50                     51
                      A                      A                      A
 Frequencies --    771.1672               783.6271               801.5009
 Red. masses --      3.9349                 1.3045                 1.4559
 Frc consts  --      1.3787                 0.4720                 0.5511
 IR Inten    --     46.5886                16.1801                21.1562

                     52                     53                     54
                      A                      A                      A
 Frequencies --    841.1047               847.6585               856.8938
 Red. masses --      2.9191                 1.2685                 3.0210
 Frc consts  --      1.2167                 0.5370                 1.3070
 IR Inten    --     20.2231                 2.7362                40.0809

                     55                     56                     57
                      A                      A                      A
 Frequencies --    866.8123               886.1965               929.0947
 Red. masses --      3.1081                 1.9172                 2.1766
 Frc consts  --      1.3759                 0.8871                 1.1070
 IR Inten    --     68.2720                13.2965                11.2811

                     58                     59                     60
                      A                      A                      A
 Frequencies --    933.4238               949.6215               986.4468
 Red. masses --      1.9302                 1.9757                 1.6406
 Frc consts  --      0.9909                 1.0497                 0.9406
 IR Inten    --     22.9193                15.4191                16.4560

                     61                     62                     63
                      A                      A                      A
 Frequencies --    987.6846              1001.1555              1003.8038
 Red. masses --      1.6736                 2.3404                 1.4017
 Frc consts  --      0.9619                 1.3821                 0.8321
 IR Inten    --      8.0735                63.5984                 5.8918

                     64                     65                     66
                      A                      A                      A
 Frequencies --   1011.5380              1015.4410              1023.9657
 Red. masses --      3.4282                 1.6629                 1.7660
 Frc consts  --      2.0667                 1.0103                 1.0910
 IR Inten    --     15.4133                 1.2686                41.2656

                     67                     68                     69
                      A                      A                      A
 Frequencies --   1040.5353              1047.1152              1054.0036
 Red. masses --      3.5705                 2.1770                 1.9939
 Frc consts  --      2.2777                 1.4064                 1.3050
 IR Inten    --     40.5553                49.9049                 9.1616

                     70                     71                     72
                      A                      A                      A
 Frequencies --   1068.0386              1101.9220              1110.7307
 Red. masses --      2.5542                 1.9374                 2.0392
 Frc consts  --      1.7166                 1.3860                 1.4823
 IR Inten    --    100.0478               109.7385                19.1927

                     73                     74                     75
                      A                      A                      A
 Frequencies --   1117.1071              1130.9865              1160.5078
 Red. masses --      1.8880                 2.7928                 1.6219
 Frc consts  --      1.3882                 2.1048                 1.2870
 IR Inten    --    119.4664                22.3646                29.3525

                     76                     77                     78
                      A                      A                      A
 Frequencies --   1167.2275              1169.9688              1182.9939
 Red. masses --      1.6294                 1.0801                 1.8043
 Frc consts  --      1.3079                 0.8711                 1.4878
 IR Inten    --    134.9646                 0.5392                 3.3578

                     79                     80                     81
                      A                      A                      A
 Frequencies --   1198.6211              1204.5573              1229.6972
 Red. masses --      1.1665                 2.0735                 1.7864
 Frc consts  --      0.9874                 1.7726                 1.5916
 IR Inten    --     14.5557                86.7215               223.5798

                     82                     83                     84
                      A                      A                      A
 Frequencies --   1244.5223              1273.2828              1306.5334
 Red. masses --      2.2077                 1.7083                 1.5354
 Frc consts  --      2.0146                 1.6318                 1.5442
 IR Inten    --    225.9915                50.9384               140.1346

                     85                     86                     87
                      A                      A                      A
 Frequencies --   1310.1597              1315.1891              1318.9128
 Red. masses --      1.2623                 1.3580                 1.4156
 Frc consts  --      1.2766                 1.3840                 1.4509
 IR Inten    --     10.4821                72.6982               132.3902

                     88                     89                     90
                      A                      A                      A
 Frequencies --   1322.2502              1335.8242              1341.9565
 Red. masses --      1.3014                 1.5242                 1.2458
 Frc consts  --      1.3406                 1.6025                 1.3218
 IR Inten    --     18.9200                16.4152                39.1882

                     91                     92                     93
                      A                      A                      A
 Frequencies --   1359.9226              1361.4514              1374.3938
 Red. masses --      2.2552                 2.0917                 1.2646
 Frc consts  --      2.4574                 2.2843                 1.4074
 IR Inten    --    110.2653                80.6238                 4.8054

                     94                     95                     96
                      A                      A                      A
 Frequencies --   1394.9122              1404.5923              1412.4121
 Red. masses --      1.4026                 1.1392                 1.6380
 Frc consts  --      1.6080                 1.3242                 1.9253
 IR Inten    --     33.0989                12.1367                55.1008

                     97                     98                     99
                      A                      A                      A
 Frequencies --   1426.6563              1459.9389              1468.9899
 Red. masses --      1.0885                 1.6647                 1.0734
 Frc consts  --      1.3053                 2.0905                 1.3648
 IR Inten    --      3.3852                66.4049                 5.6578

                    100                    101                    102
                      A                      A                      A
 Frequencies --   1469.7336              1472.3779              1477.3317
 Red. masses --      1.0800                 2.1305                 1.1045
 Frc consts  --      1.3745                 2.7212                 1.4203
 IR Inten    --      3.1887                44.9648                 5.3447

                    103                    104                    105
                      A                      A                      A
 Frequencies --   1485.3238              1486.4572              1495.5507
 Red. masses --      1.0789                 1.3720                 1.1769
 Frc consts  --      1.4024                 1.7861                 1.5510
 IR Inten    --     29.7812                20.7311                29.0824

                    106                    107                    108
                      A                      A                      A
 Frequencies --   1505.1234              1519.3799              1624.1663
 Red. masses --      1.2555                 2.1417                 5.9194
 Frc consts  --      1.6758                 2.9130                 9.2000
 IR Inten    --     24.4598                 8.6906                 1.8887

                    109                    110                    111
                      A                      A                      A
 Frequencies --   1644.4973              1746.5054              2981.2909
 Red. masses --      5.8235                11.3956                 1.0557
 Frc consts  --      9.2791                20.4799                 5.5283
 IR Inten    --      4.1273               492.8124                62.8692

                    112                    113                    114
                      A                      A                      A
 Frequencies --   3004.3383              3043.9734              3060.1310
 Red. masses --      1.0457                 1.0362                 1.0883
 Frc consts  --      5.5609                 5.6570                 6.0046
 IR Inten    --     30.2699                19.0243                56.5014

                    115                    116                    117
                      A                      A                      A
 Frequencies --   3067.9038              3074.9959              3076.2480
 Red. masses --      1.0761                 1.0674                 1.0628
 Frc consts  --      5.9674                 5.9464                 5.9258
 IR Inten    --     21.0769                10.6373                30.1338

                    118                    119                    120
                      A                      A                      A
 Frequencies --   3086.5979              3101.9418              3111.8893
 Red. masses --      1.0594                 1.0743                 1.0906
 Frc consts  --      5.9465                 6.0901                 6.2223
 IR Inten    --     35.2463                10.9150                11.9446

                    121                    122                    123
                      A                      A                      A
 Frequencies --   3120.9952              3121.4544              3130.0843
 Red. masses --      1.0991                 1.1011                 1.1037
 Frc consts  --      6.3076                 6.3210                 6.3712
 IR Inten    --     43.6198                13.3486                 5.1332

                    124                    125                    126
                      A                      A                      A
 Frequencies --   3132.9532              3153.7453              3172.1353
 Red. masses --      1.1039                 1.1089                 1.1019
 Frc consts  --      6.3837                 6.4984                 6.5326
 IR Inten    --     35.3028                26.4750                 8.9502

                    127                    128                    129
                      A                      A                      A
 Frequencies --   3175.4198              3184.8931              3190.7668
 Red. masses --      1.0858                 1.0902                 1.1029
 Frc consts  --      6.4505                 6.5154                 6.6158
 IR Inten    --      0.0492                12.6208                 3.9617

                    130                    131                    132
                      A                      A                      A
 Frequencies --   3196.1702              3206.0930              3237.2937
 Red. masses --      1.0951                 1.0952                 1.0906
 Frc consts  --      6.5909                 6.6327                 6.7341
 IR Inten    --     29.1411                13.0086                 3.6041

 - Thermochemistry -
 -------------------
 Temperature   298.150 Kelvin.  Pressure   1.00000 Atm.
 Atom     1 has atomic number  6 and mass  12.00000

 Molecular mass:   434.99839 amu.
 Principal axes and moments of inertia in atomic units:
                           1         2         3
     Eigenvalues --  8249.55468********************
           X            0.99710  -0.07431  -0.01663
           Y            0.07449   0.99716   0.01088
           Z            0.01578  -0.01209   0.99980
 This molecule is an asymmetric top.
 Rotational symmetry number  1.
 Warning -- assumption of classical behavior for rotation
           may cause significant error
 Rotational temperatures (Kelvin)      0.01050     0.00786     0.00695
 Rotational constants (GHZ):           0.21877     0.16384     0.14485
    1 imaginary frequencies ignored.
 Zero-point vibrational energy     942086.0 (Joules/Mol)
                                  225.16395 (Kcal/Mol)
 Warning -- explicit consideration of  41 degrees of freedom as
           vibrations may cause significant error
 Vibrational temperatures:     45.76    52.64    59.85    75.24    77.41
          (Kelvin)             92.79   105.96   111.05   129.44   136.92
                              142.23   158.70   162.57   173.12   176.36
                              193.22   199.88   208.99   240.77   275.32
                              299.46   324.50   376.61   382.32   396.77
                              444.66   464.10   469.60   488.52   503.07
                              507.11   526.79   547.53   594.38   604.96
                              655.86   695.15   724.60   775.45   791.78
                              849.95   904.49   919.35  1000.90  1013.71
                             1026.05  1085.44  1109.54  1127.46  1153.18
                             1210.16  1219.59  1232.88  1247.15  1275.04
                             1336.76  1342.99  1366.29  1419.28  1421.06
                             1440.44  1444.25  1455.38  1460.99  1473.26
                             1497.10  1506.57  1516.48  1536.67  1585.42
                             1598.09  1607.27  1627.24  1669.71  1679.38
                             1683.32  1702.06  1724.55  1733.09  1769.26
                             1790.59  1831.97  1879.81  1885.03  1892.26
                             1897.62  1902.42  1921.95  1930.78  1956.63
                             1958.82  1977.45  2006.97  2020.90  2032.15
                             2052.64  2100.53  2113.55  2114.62  2118.42
                             2125.55  2137.05  2138.68  2151.76  2165.54
                             2186.05  2336.81  2366.06  2512.83  4289.41
                             4322.57  4379.60  4402.85  4414.03  4424.23
                             4426.03  4440.93  4463.00  4477.31  4490.42
                             4491.08  4503.49  4507.62  4537.54  4564.00
                             4568.72  4582.35  4590.80  4598.58  4612.85
                             4657.74

 Zero-point correction=                           0.358822 (Hartree/Particle)
 Thermal correction to Energy=                    0.385979
 Thermal correction to Enthalpy=                  0.386923
 Thermal correction to Gibbs Free Energy=         0.297950
 Sum of electronic and zero-point Energies=          -3531.202256
 Sum of electronic and thermal Energies=             -3531.175099
 Sum of electronic and thermal Enthalpies=           -3531.174155
 Sum of electronic and thermal Free Energies=        -3531.263128

                     E (Thermal)             CV                S
                      KCal/Mol        Cal/Mol-Kelvin    Cal/Mol-Kelvin
 Total                  242.205             97.211            187.259
 Electronic               0.000              0.000              3.561
 Translational            0.889              2.981             44.100
 Rotational               0.889              2.981             35.380
 Vibrational            240.428             91.249            104.217
 Vibration     1          0.594              1.983              5.713
 Vibration     2          0.594              1.982              5.436
 Vibration     3          0.594              1.981              5.182
 Vibration     4          0.596              1.977              4.729
 Vibration     5          0.596              1.976              4.672
 Vibration     6          0.597              1.971              4.315
 Vibration     7          0.599              1.966              4.053
 Vibration     8          0.599              1.964              3.961
 Vibration     9          0.602              1.956              3.661
 Vibration    10          0.603              1.953              3.551
 Vibration    11          0.604              1.950              3.477
 Vibration    12          0.606              1.941              3.264
 Vibration    13          0.607              1.939              3.217
 Vibration    14          0.609              1.932              3.095
 Vibration    15          0.610              1.930              3.059
 Vibration    16          0.613              1.919              2.884
 Vibration    17          0.615              1.914              2.819
 Vibration    18          0.617              1.908              2.733
 Vibration    19          0.624              1.883              2.465
 Vibration    20          0.634              1.852              2.215
 Vibration    21          0.641              1.828              2.060
 Vibration    22          0.650              1.802              1.914
 Vibration    23          0.669              1.743              1.650
 Vibration    24          0.672              1.736              1.624
 Vibration    25          0.677              1.718              1.560
 Vibration    26          0.698              1.656              1.367
 Vibration    27          0.708              1.630              1.297
 Vibration    28          0.710              1.623              1.278
 Vibration    29          0.719              1.596              1.214
 Vibration    30          0.727              1.576              1.168
 Vibration    31          0.729              1.570              1.155
 Vibration    32          0.739              1.542              1.096
 Vibration    33          0.750              1.512              1.037
 Vibration    34          0.777              1.442              0.916
 Vibration    35          0.783              1.426              0.890
 Vibration    36          0.814              1.348              0.778
 Vibration    37          0.839              1.287              0.702
 Vibration    38          0.859              1.242              0.649
 Vibration    39          0.894              1.164              0.568
 Vibration    40          0.906              1.139              0.544
 Vibration    41          0.948              1.052              0.466

 Optimization completed.
    -- Stationary point found.
 Normal termination of Gaussian 16 at Tue Jul  6 04:20:15 2021.
