 Gaussian 16, Revision A.03,
 Gaussian 16:  ES64L-G16RevA.03 25-Dec-2016

 ----------------------------------------------------------------------
 #p opt freq=noraman ub3lyp jul-cc-pvdz scrf=(pcm,solvent=dichloroethan
 e) pop=cm5
 ----------------------------------------------------------------------

 -----
 title
 -----
 Symbolic Z-matrix:
 Charge =  0 Multiplicity = 6

 SCF Done:  E(UB3LYP) =  -3531.42339764     A.U. after   23 cycles
 SCF Done:  E(UB3LYP) =  -3531.42041289     A.U. after   20 cycles
 SCF Done:  E(UB3LYP) =  -3531.42843590     A.U. after   18 cycles
 SCF Done:  E(UB3LYP) =  -3531.42899616     A.U. after   17 cycles
 SCF Done:  E(UB3LYP) =  -3531.43033788     A.U. after   16 cycles
 SCF Done:  E(UB3LYP) =  -3531.43135999     A.U. after   15 cycles
 SCF Done:  E(UB3LYP) =  -3531.43109969     A.U. after   16 cycles
 SCF Done:  E(UB3LYP) =  -3531.43232498     A.U. after   15 cycles
 SCF Done:  E(UB3LYP) =  -3531.43235459     A.U. after   15 cycles
 SCF Done:  E(UB3LYP) =  -3531.43237595     A.U. after   16 cycles
 SCF Done:  E(UB3LYP) =  -3531.43662816     A.U. after   13 cycles
 SCF Done:  E(UB3LYP) =  -3531.43663625     A.U. after   11 cycles
 SCF Done:  E(UB3LYP) =  -3531.43664181     A.U. after   12 cycles
 SCF Done:  E(UB3LYP) =  -3531.43664560     A.U. after   13 cycles
 SCF Done:  E(UB3LYP) =  -3531.43663923     A.U. after   12 cycles
 SCF Done:  E(UB3LYP) =  -3531.43663644     A.U. after   10 cycles
 SCF Done:  E(UB3LYP) =  -3531.43663700     A.U. after   11 cycles
 SCF Done:  E(UB3LYP) =  -3531.43663697     A.U. after    9 cycles
 SCF Done:  E(UB3LYP) =  -3531.43663700     A.U. after    9 cycles
 Optimization completed.
    -- Stationary point found.
 Normal termination of Gaussian 16 at Sun Jun 27 05:25:48 2021.

 ----------------------------------------------------------------------
 #P Geom=AllCheck Guess=TCheck SCRF=Check GenChk UB3LYP/Jul-CC-pVDZ Fre
 q
 ----------------------------------------------------------------------

 Structure from the checkpoint file:  "/scratch/kwaneu.3001738.bmbhpcps002/Gau-26884.chk"
 -----
 title
 -----
 Charge =  0 Multiplicity = 6

                         Standard orientation:
 ---------------------------------------------------------------------
 Center     Atomic      Atomic             Coordinates (Angstroms)
 Number     Number       Type             X           Y           Z
 ---------------------------------------------------------------------
      1          6           0        1.846314    1.831532    1.744108
      2          6           0        1.247712    0.751972    1.073766
      3          6           0        1.402057   -0.532277    1.620222
      4          6           0        2.115971   -0.729762    2.804643
      5          6           0        2.698144    0.354188    3.468672
      6          6           0        2.562025    1.635965    2.930175
      7          6           0        0.502590    0.906342   -0.268663
      8          6           0        1.528581    0.874933   -1.475131
      9          6           0        2.086292    2.294269   -1.559202
     10          6           0        0.903626    3.235557   -1.247784
     11          6           0       -0.114863    2.373752   -0.370932
     12          6           0       -1.395010    2.539551   -1.065793
     13          6           0       -1.732973    1.877090   -2.321444
     14          8           0       -0.467355   -0.074884   -0.435146
     15         26           0       -1.889986   -0.963547    0.322515
     16         17           0       -3.540197   -1.041534   -1.244628
     17          6           0       -2.394969    3.419464   -0.444805
     18         17           0       -1.340941   -3.082542    0.876488
     19         17           0       -2.673084    0.218432    2.090756
     20          1           0        0.956028   -1.388735    1.119339
     21          1           0        2.213132   -1.737994    3.209976
     22          1           0        3.251889    0.201662    4.396161
     23          1           0        3.010851    2.493931    3.432710
     24          1           0        1.770848    2.848434    1.362029
     25          1           0        0.937007    0.631173   -2.366135
     26          6           0        2.602546   -0.193807   -1.359053
     27          1           0        2.516242    2.507213   -2.545085
     28          1           0        2.882809    2.422707   -0.817343
     29          1           0        0.438754    3.590055   -2.176771
     30          1           0        1.190479    4.128121   -0.681678
     31          1           0       -0.204031    2.801428    0.629958
     32          1           0       -1.926223    4.294863    0.026777
     33          1           0       -2.798365    2.824415    0.402107
     34          1           0       -3.214985    3.703754   -1.109852
     35          1           0       -2.310944    2.538071   -2.980386
     36          1           0       -2.439873    1.065734   -2.024580
     37          1           0       -0.897859    1.405370   -2.839780
     38          8           0        2.125897   -1.402248   -1.692625
     39          8           0        3.753935    0.012412   -1.021987
     40          6           0        3.050775   -2.525161   -1.597283
     41          6           0        2.295186   -3.775435   -1.996962
     42          1           0        3.421649   -2.576806   -0.565362
     43          1           0        3.902282   -2.324812   -2.260983
     44          1           0        2.969787   -4.640706   -1.930957
     45          1           0        1.927580   -3.701562   -3.029818
     46          1           0        1.440501   -3.949423   -1.329355
 ---------------------------------------------------------------------

 SCF Done:  E(UB3LYP) =  -3531.43663700     A.U. after    2 cycles

 The electronic state is 6-A.
 Alpha  occ. eigenvalues -- -256.19284-101.51201-101.51168-101.50857 -30.18679
 Alpha  occ. eigenvalues --  -26.04026 -26.03929 -26.03776 -19.20063 -19.15552
 Alpha  occ. eigenvalues --  -19.14920 -10.33306 -10.32684 -10.29032 -10.24699
 Alpha  occ. eigenvalues --  -10.24129 -10.23298 -10.23290 -10.22840 -10.22000
 Alpha  occ. eigenvalues --  -10.21192 -10.20695 -10.20352 -10.20071 -10.19948
 Alpha  occ. eigenvalues --  -10.19875 -10.19666 -10.18516  -9.42870  -9.42855
 Alpha  occ. eigenvalues --   -9.42545  -7.18742  -7.18723  -7.18423  -7.18417
 Alpha  occ. eigenvalues --   -7.18407  -7.18404  -7.18378  -7.18100  -7.18069
 Alpha  occ. eigenvalues --   -3.66396  -2.43965  -2.43753  -2.43515  -1.11787
 Alpha  occ. eigenvalues --   -1.03139  -1.02754  -0.90547  -0.87069  -0.84866
 Alpha  occ. eigenvalues --   -0.79076  -0.78826  -0.78217  -0.77997  -0.77307
 Alpha  occ. eigenvalues --   -0.76411  -0.75705  -0.75473  -0.72394  -0.66874
 Alpha  occ. eigenvalues --   -0.64334  -0.62079  -0.61326  -0.59813  -0.57658
 Alpha  occ. eigenvalues --   -0.56784  -0.55023  -0.53478  -0.51542  -0.50833
 Alpha  occ. eigenvalues --   -0.50212  -0.49533  -0.48582  -0.48368  -0.48308
 Alpha  occ. eigenvalues --   -0.46848  -0.46666  -0.46483  -0.46190  -0.45933
 Alpha  occ. eigenvalues --   -0.44972  -0.44809  -0.43650  -0.43423  -0.43386
 Alpha  occ. eigenvalues --   -0.42701  -0.42482  -0.41650  -0.41255  -0.40602
 Alpha  occ. eigenvalues --   -0.39948  -0.39354  -0.37990  -0.37685  -0.37522
 Alpha  occ. eigenvalues --   -0.36974  -0.36373  -0.36064  -0.35785  -0.35412
 Alpha  occ. eigenvalues --   -0.35105  -0.33446  -0.33096  -0.31587  -0.30833
 Alpha  occ. eigenvalues --   -0.30174  -0.30085  -0.29843  -0.29666  -0.29228
 Alpha  occ. eigenvalues --   -0.29076  -0.28337  -0.27798  -0.26491  -0.26082
 Alpha virt. eigenvalues --   -0.14502  -0.02923  -0.02715  -0.01618  -0.01270
 Alpha virt. eigenvalues --   -0.00353  -0.00106   0.00005   0.01401   0.01451
 Alpha virt. eigenvalues --    0.01607   0.01786   0.02378   0.03200   0.03492

  Beta  occ. eigenvalues -- -256.19099-101.51037-101.51020-101.50700 -30.09739
  Beta  occ. eigenvalues --  -25.96536 -25.96487 -25.96354 -19.20062 -19.14917
  Beta  occ. eigenvalues --  -19.14699 -10.33301 -10.32685 -10.29015 -10.24699
  Beta  occ. eigenvalues --  -10.24106 -10.23299 -10.23290 -10.22840 -10.21973
  Beta  occ. eigenvalues --  -10.21172 -10.20691 -10.20350 -10.20069 -10.19948
  Beta  occ. eigenvalues --  -10.19874 -10.19669 -10.18516  -9.42709  -9.42709
  Beta  occ. eigenvalues --   -9.42391  -7.18455  -7.18449  -7.18225  -7.18212
  Beta  occ. eigenvalues --   -7.18195  -7.18193  -7.18145  -7.17882  -7.17878
  Beta  occ. eigenvalues --   -3.45557  -2.21894  -2.21823  -2.21635  -1.11783
  Beta  occ. eigenvalues --   -1.03133  -1.01085  -0.90396  -0.86994  -0.84788
  Beta  occ. eigenvalues --   -0.79058  -0.77842  -0.77241  -0.77106  -0.76912
  Beta  occ. eigenvalues --   -0.76370  -0.75690  -0.75457  -0.72240  -0.66754
  Beta  occ. eigenvalues --   -0.64259  -0.62026  -0.61278  -0.59676  -0.57498
  Beta  occ. eigenvalues --   -0.56468  -0.54919  -0.52196  -0.51394  -0.50805
  Beta  occ. eigenvalues --   -0.50062  -0.49376  -0.48316  -0.48212  -0.47714
  Beta  occ. eigenvalues --   -0.46112  -0.44892  -0.44367  -0.43586  -0.43480
  Beta  occ. eigenvalues --   -0.42843  -0.42511  -0.41686  -0.41395  -0.40752
  Beta  occ. eigenvalues --   -0.39942  -0.39255  -0.37976  -0.37656  -0.37505
  Beta  occ. eigenvalues --   -0.36610  -0.36585  -0.36330  -0.35833  -0.35473
  Beta  occ. eigenvalues --   -0.35288  -0.34510  -0.34376  -0.32095  -0.31918
  Beta  occ. eigenvalues --   -0.31642  -0.31562  -0.31105  -0.30873  -0.29282
  Beta  occ. eigenvalues --   -0.28679  -0.28587  -0.28210  -0.26502  -0.26054
  Beta virt. eigenvalues --   -0.14587  -0.13119  -0.12931  -0.11990  -0.11592
  Beta virt. eigenvalues --   -0.10756  -0.02871  -0.02686  -0.01550  -0.01227
  Beta virt. eigenvalues --   -0.00287  -0.00060   0.00027   0.01428   0.01462

 Mulliken charges and spin densities:
               1          2
     1  C   -0.270928   0.000550
     2  C    2.775330   0.008927
     3  C   -0.635037  -0.004195
     4  C    0.078729   0.007038
     5  C    0.188463   0.000909
     6  C   -0.139587   0.001755
     7  C   -1.805615  -0.019778
     8  C    0.492206   0.013208
     9  C    0.601227   0.003234
    10  C    0.408375  -0.001786
    11  C    1.791903   0.014426
    12  C   -1.113513   0.009263
    13  C    0.065863  -0.004471
    14  O   -0.491880   0.299595
    15  Fe   0.609959   4.048110
    16  Cl  -0.559177   0.198294
    17  C    0.386156  -0.001618
    18  Cl  -0.528332   0.215591
    19  Cl  -0.550641   0.210261
    20  H   -0.249675  -0.000596
    21  H   -0.170255  -0.000054
    22  H   -0.166273   0.000005
    23  H   -0.164012   0.000146
    24  H   -0.237193   0.000002
    25  H   -0.196559  -0.000292
    26  C    0.918140  -0.000325
    27  H   -0.146581   0.000640
    28  H   -0.048736   0.000030
    29  H   -0.093306   0.000203
    30  H   -0.089097   0.000064
    31  H   -0.211391   0.000295
    32  H    0.061462   0.000218
    33  H    0.128502   0.000398
    34  H    0.004884  -0.000024
    35  H    0.035245  -0.000035
    36  H    0.178456   0.000922
    37  H    0.059687   0.000089
    38  O   -0.710397  -0.002210
    39  O   -0.645940   0.001410
    40  C    0.432626  -0.000393
    41  C    0.058199   0.000293
    42  H   -0.038146   0.000017
    43  H   -0.051824   0.000009
    44  H   -0.006498   0.000009
    45  H    0.018884  -0.000007
    46  H    0.026295  -0.000130
 Sum of Mulliken charges =  -0.00000   5.00000

 Dipole moment (field-independent basis, Debye):
    X=              4.3343    Y=             14.8708    Z=             -6.5244  Tot=             16.8076
 Quadrupole moment (field-independent basis, Debye-Ang):
   XX=           -203.0944   YY=           -145.1238   ZZ=           -169.0170
   XY=            -29.6298   XZ=             11.9434   YZ=             -8.1448

  Exact polarizability: 410.132   8.709 423.962  38.116  -6.207 377.781
 Approx polarizability: 449.028  13.638 477.977  42.723  -2.597 437.280

                      1                      2                      3
                      A                      A                      A
 Frequencies --     23.9050                28.7437                41.6579
 Red. masses --      4.9223                 4.8927                 4.1278
 Frc consts  --      0.0017                 0.0024                 0.0042
 IR Inten    --      0.6372                 6.2334                 2.3842

                      4                      5                      6
                      A                      A                      A
 Frequencies --     52.2251                60.6800                62.6519
 Red. masses --     11.8997                 4.3722                 4.0404
 Frc consts  --      0.0191                 0.0095                 0.0093
 IR Inten    --      0.4032                 5.8262                14.3562

                      7                      8                      9
                      A                      A                      A
 Frequencies --     66.5699                73.9525                78.1544
 Red. masses --      3.4303                 7.9872                 4.3701
 Frc consts  --      0.0090                 0.0257                 0.0157
 IR Inten    --      1.5330                 0.2802                 3.7361

                     10                     11                     12
                      A                      A                      A
 Frequencies --     91.9681                95.2836               102.4785
 Red. masses --      6.3836                 4.4076                15.0456
 Frc consts  --      0.0318                 0.0236                 0.0931
 IR Inten    --      5.6648                 2.8253                 7.0696

                     13                     14                     15
                      A                      A                      A
 Frequencies --    109.5648               113.5363               122.5925
 Red. masses --     11.4588                 4.1284                 4.2776
 Frc consts  --      0.0810                 0.0314                 0.0379
 IR Inten    --      4.2689                 3.0775                 7.9836

                     16                     17                     18
                      A                      A                      A
 Frequencies --    138.6804               146.3356               157.2525
 Red. masses --      6.3798                 3.6382                 1.2740
 Frc consts  --      0.0723                 0.0459                 0.0186
 IR Inten    --      3.4685                 5.7997                 2.8034

                     19                     20                     21
                      A                      A                      A
 Frequencies --    170.0424               180.4944               184.1500
 Red. masses --      2.0458                 1.5038                 2.4106
 Frc consts  --      0.0349                 0.0289                 0.0482
 IR Inten    --      0.8761                15.6949                13.3536

                     22                     23                     24
                      A                      A                      A
 Frequencies --    209.7318               232.9385               248.5447
 Red. masses --      4.7524                 2.9076                 3.7206
 Frc consts  --      0.1232                 0.0930                 0.1354
 IR Inten    --      6.1601                 1.0133                11.4190

                     25                     26                     27
                      A                      A                      A
 Frequencies --    258.0699               275.0297               292.9313
 Red. masses --      1.5343                 3.2811                 6.2062
 Frc consts  --      0.0602                 0.1462                 0.3138
 IR Inten    --      2.2151                 3.7236                17.0318

                     28                     29                     30
                      A                      A                      A
 Frequencies --    301.2539               318.1862               326.9052
 Red. masses --      5.5522                 7.9661                 5.4112
 Frc consts  --      0.2969                 0.4752                 0.3407
 IR Inten    --      2.1494                36.7693                58.5733

                     31                     32                     33
                      A                      A                      A
 Frequencies --    336.5542               348.7631               362.5215
 Red. masses --     15.6800                28.0371                 5.2888
 Frc consts  --      1.0464                 2.0093                 0.4095
 IR Inten    --    141.9576               147.3954                59.9228

                     34                     35                     36
                      A                      A                      A
 Frequencies --    390.0284               414.1846               418.8981
 Red. masses --      6.7137                 3.9597                 2.9615
 Frc consts  --      0.6017                 0.4002                 0.3062
 IR Inten    --     29.4213                 9.5599                 1.1863

                     37                     38                     39
                      A                      A                      A
 Frequencies --    445.0643               477.8726               512.9971
 Red. masses --      3.3939                 2.8672                 2.2851
 Frc consts  --      0.3961                 0.3858                 0.3543
 IR Inten    --      3.7168                 3.4904                 3.9011

                     40                     41                     42
                      A                      A                      A
 Frequencies --    553.4219               582.6747               628.1222
 Red. masses --      3.7221                 2.4761                 6.2982
 Frc consts  --      0.6717                 0.4953                 1.4640
 IR Inten    --     50.8475                 3.9450                 0.5589

                     43                     44                     45
                      A                      A                      A
 Frequencies --    646.4157               671.3646               707.5051
 Red. masses --      5.5722                 3.5048                 2.0009
 Frc consts  --      1.3718                 0.9307                 0.5901
 IR Inten    --     26.1674                33.2394                85.2347

                     46                     47                     48
                      A                      A                      A
 Frequencies --    715.8275               756.4492               765.9544
 Red. masses --      2.9632                 2.9527                 1.3862
 Frc consts  --      0.8946                 0.9955                 0.4792
 IR Inten    --     23.9593                46.2213                23.3607

                     49                     50                     51
                      A                      A                      A
 Frequencies --    776.6179               788.5150               808.0740
 Red. masses --      3.2095                 2.9412                 1.1259
 Frc consts  --      1.1405                 1.0774                 0.4332
 IR Inten    --     35.1955                11.2957                 0.7421

                     52                     53                     54
                      A                      A                      A
 Frequencies --    822.4728               831.0742               848.4005
 Red. masses --      3.1503                 2.9353                 1.2530
 Frc consts  --      1.2556                 1.1945                 0.5314
 IR Inten    --     81.1620                 2.4274                 1.3693

                     55                     56                     57
                      A                      A                      A
 Frequencies --    865.7641               875.9779               917.7536
 Red. masses --      2.9010                 2.6362                 1.9084
 Frc consts  --      1.2812                 1.1918                 0.9470
 IR Inten    --      6.0715                21.6215                58.8506

                     58                     59                     60
                      A                      A                      A
 Frequencies --    932.1124               950.4838               980.6616
 Red. masses --      1.8884                 2.8537                 2.4929
 Frc consts  --      0.9667                 1.5190                 1.4125
 IR Inten    --      6.1545                20.7742                88.8247

                     61                     62                     63
                      A                      A                      A
 Frequencies --    986.1552               987.8869              1002.3874
 Red. masses --      1.9096                 1.7599                 2.9239
 Frc consts  --      1.0942                 1.0119                 1.7309
 IR Inten    --      1.7003                 1.2185                 0.9633

                     64                     65                     66
                      A                      A                      A
 Frequencies --   1003.6570              1010.5390              1019.4775
 Red. masses --      1.6448                 1.4252                 2.9411
 Frc consts  --      0.9762                 0.8575                 1.8010
 IR Inten    --      3.9765                 3.4698                65.0381

                     67                     68                     69
                      A                      A                      A
 Frequencies --   1028.7073              1038.9345              1051.8659
 Red. masses --      2.0083                 3.3924                 2.2469
 Frc consts  --      1.2522                 2.1574                 1.4647
 IR Inten    --     28.7614                30.4271                10.4561

                     70                     71                     72
                      A                      A                      A
 Frequencies --   1077.8629              1092.2431              1096.0206
 Red. masses --      2.1770                 1.9065                 2.5856
 Frc consts  --      1.4902                 1.3400                 1.8300
 IR Inten    --     35.1886                30.2028               280.2918

                     73                     74                     75
                      A                      A                      A
 Frequencies --   1121.6689              1130.0475              1153.7246
 Red. masses --      2.3925                 2.2224                 2.0564
 Frc consts  --      1.7735                 1.6721                 1.6127
 IR Inten    --    235.4585                 8.2134                55.7516

                     76                     77                     78
                      A                      A                      A
 Frequencies --   1165.7398              1168.5581              1180.2332
 Red. masses --      1.5447                 1.0905                 2.0920
 Frc consts  --      1.2368                 0.8774                 1.7169
 IR Inten    --      4.3760                 1.1755                73.5356

                     79                     80                     81
                      A                      A                      A
 Frequencies --   1202.5965              1207.8700              1217.3215
 Red. masses --      1.1376                 1.5315                 2.2812
 Frc consts  --      0.9694                 1.3165                 1.9917
 IR Inten    --      4.7361               161.3921               252.1733

                     82                     83                     84
                      A                      A                      A
 Frequencies --   1252.5461              1257.1713              1281.0947
 Red. masses --      1.7311                 1.3299                 1.1143
 Frc consts  --      1.6002                 1.2384                 1.0775
 IR Inten    --    121.1003                11.7352                 5.9736

                     85                     86                     87
                      A                      A                      A
 Frequencies --   1286.3026              1299.0054              1312.0913
 Red. masses --      1.5163                 1.4321                 1.2640
 Frc consts  --      1.4782                 1.4238                 1.2821
 IR Inten    --    155.1669                65.8925                63.3701

                     88                     89                     90
                      A                      A                      A
 Frequencies --   1316.0052              1328.8142              1329.4662
 Red. masses --      1.3252                 1.5581                 1.3414
 Frc consts  --      1.3522                 1.6209                 1.3969
 IR Inten    --     32.2958                49.9307                44.0757

                     91                     92                     93
                      A                      A                      A
 Frequencies --   1355.1989              1355.8692              1366.7464
 Red. masses --      1.7827                 1.9535                 1.3301
 Frc consts  --      1.9290                 2.1159                 1.4639
 IR Inten    --    119.3039                13.8205                13.8782

                     94                     95                     96
                      A                      A                      A
 Frequencies --   1389.4981              1397.1693              1411.4780
 Red. masses --      1.4516                 1.2350                 1.5631
 Frc consts  --      1.6513                 1.4204                 1.8348
 IR Inten    --     43.7496                77.4544                20.4335

                     97                     98                     99
                      A                      A                      A
 Frequencies --   1420.2727              1437.6752              1465.3988
 Red. masses --      1.1045                 1.5490                 2.2521
 Frc consts  --      1.3127                 1.8863                 2.8494
 IR Inten    --      0.5174               101.1402                22.3172

                    100                    101                    102
                      A                      A                      A
 Frequencies --   1466.9875              1477.4087              1480.9688
 Red. masses --      1.0401                 1.0540                 1.1166
 Frc consts  --      1.3188                 1.3555                 1.4429
 IR Inten    --      6.8754                 2.0961                 4.3997

                    103                    104                    105
                      A                      A                      A
 Frequencies --   1486.5131              1495.1231              1497.8792
 Red. masses --      1.2244                 1.1723                 1.2447
 Frc consts  --      1.5941                 1.5440                 1.6454
 IR Inten    --     19.3775                30.0986                31.8519

                    106                    107                    108
                      A                      A                      A
 Frequencies --   1501.6499              1517.8694              1621.1501
 Red. masses --      1.0880                 2.1406                 5.6583
 Frc consts  --      1.4454                 2.9057                 8.7616
 IR Inten    --     10.1315                12.2866                 1.0877

                    109                    110                    111
                      A                      A                      A
 Frequencies --   1641.1732              1739.8301              2874.1426
 Red. masses --      5.8630                11.7232                 1.0649
 Frc consts  --      9.3042                20.9078                 5.1827
 IR Inten    --      0.2156               447.4326               416.2784

                    112                    113                    114
                      A                      A                      A
 Frequencies --   2965.9831              3039.2257              3061.6369
 Red. masses --      1.0570                 1.0351                 1.0578
 Frc consts  --      5.4787                 5.6332                 5.8419
 IR Inten    --     63.7276                20.4900                25.8213

                    115                    116                    117
                      A                      A                      A
 Frequencies --   3065.8376              3078.4426              3078.6670
 Red. masses --      1.0650                 1.0741                 1.0615
 Frc consts  --      5.8981                 5.9970                 5.9278
 IR Inten    --     16.6650                 1.8616                22.0845

                    118                    119                    120
                      A                      A                      A
 Frequencies --   3085.7318              3092.3432              3105.4786
 Red. masses --      1.0829                 1.0689                 1.1065
 Frc consts  --      6.0749                 6.0226                 6.2872
 IR Inten    --     11.5367                 5.4919                 1.3959

                    121                    122                    123
                      A                      A                      A
 Frequencies --   3117.7772              3118.4857              3128.1814
 Red. masses --      1.1016                 1.0987                 1.1068
 Frc consts  --      6.3093                 6.2956                 6.3811
 IR Inten    --     31.3274                 8.1417                54.0529

                    124                    125                    126
                      A                      A                      A
 Frequencies --   3130.4005              3136.7069              3170.4671
 Red. masses --      1.0963                 1.0980                 1.0851
 Frc consts  --      6.3294                 6.3649                 6.4266
 IR Inten    --      9.3076                21.8040                 0.3509

                    127                    128                    129
                      A                      A                      A
 Frequencies --   3173.7343              3179.4887              3191.3299
 Red. masses --      1.1042                 1.0897                 1.0938
 Frc consts  --      6.5529                 6.4902                 6.5632
 IR Inten    --     13.0927                13.2201                34.8020

                    130                    131                    132
                      A                      A                      A
 Frequencies --   3199.8193              3203.4346              3215.9233
 Red. masses --      1.0957                 1.1002                 1.0924
 Frc consts  --      6.6099                 6.6521                 6.6565
 IR Inten    --     16.6147                 4.6573                 4.2857

 - Thermochemistry -
 -------------------
 Temperature   298.150 Kelvin.  Pressure   1.00000 Atm.
 Atom     1 has atomic number  6 and mass  12.00000

 Molecular mass:   434.99839 amu.
 Principal axes and moments of inertia in atomic units:
                           1         2         3
     Eigenvalues --  9273.47926********************
           X            0.99464  -0.10207   0.01672
           Y            0.10195   0.99476   0.00767
           Z           -0.01742  -0.00593   0.99983
 This molecule is an asymmetric top.
 Rotational symmetry number  1.
 Warning -- assumption of classical behavior for rotation
           may cause significant error
 Rotational temperatures (Kelvin)      0.00934     0.00746     0.00662
 Rotational constants (GHZ):           0.19461     0.15543     0.13792
 Zero-point vibrational energy     940516.8 (Joules/Mol)
                                  224.78891 (Kcal/Mol)
 Warning -- explicit consideration of  41 degrees of freedom as
           vibrations may cause significant error
 Vibrational temperatures:     34.39    41.36    59.94    75.14    87.30
          (Kelvin)             90.14    95.78   106.40   112.45   132.32
                              137.09   147.44   157.64   163.35   176.38
                              199.53   210.54   226.25   244.65   259.69
                              264.95   301.76   335.15   357.60   371.31
                              395.71   421.46   433.44   457.80   470.34
                              484.23   501.79   521.59   561.16   595.92
                              602.70   640.35   687.55   738.09   796.25
                              838.34   903.73   930.05   965.94  1017.94
                             1029.92  1088.36  1102.04  1117.38  1134.50
                             1162.64  1183.35  1195.73  1220.66  1245.64
                             1260.34  1320.44  1341.10  1367.53  1410.95
                             1418.86  1421.35  1442.21  1444.04  1453.94
                             1466.80  1480.08  1494.80  1513.40  1550.80
                             1571.49  1576.93  1613.83  1625.89  1659.95
                             1677.24  1681.29  1698.09  1730.27  1737.86
                             1751.45  1802.13  1808.79  1843.21  1850.70
                             1868.98  1887.81  1893.44  1911.87  1912.81
                             1949.83  1950.79  1966.44  1999.18  2010.22
                             2030.80  2043.46  2068.49  2108.38  2110.67
                             2125.66  2130.78  2138.76  2151.15  2155.11
                             2160.54  2183.88  2332.47  2361.28  2503.23
                             4135.25  4267.39  4372.77  4405.01  4411.06
                             4429.19  4429.52  4439.68  4449.19  4468.09
                             4485.79  4486.81  4500.76  4503.95  4513.02
                             4561.59  4566.30  4574.58  4591.61  4603.83
                             4609.03  4627.00

 Zero-point correction=                           0.358224 (Hartree/Particle)
 Thermal correction to Energy=                    0.386086
 Thermal correction to Enthalpy=                  0.387030
 Thermal correction to Gibbs Free Energy=         0.295981
 Sum of electronic and zero-point Energies=          -3531.078413
 Sum of electronic and thermal Energies=             -3531.050551
 Sum of electronic and thermal Enthalpies=           -3531.049607
 Sum of electronic and thermal Free Energies=        -3531.140656

                     E (Thermal)             CV                S
                      KCal/Mol        Cal/Mol-Kelvin    Cal/Mol-Kelvin
 Total                  242.273             99.068            191.629
 Electronic               0.000              0.000              3.561
 Translational            0.889              2.981             44.100
 Rotational               0.889              2.981             35.598
 Vibrational            240.495             93.106            108.370
 Vibration     1          0.593              1.985              6.280
 Vibration     2          0.593              1.984              5.914
 Vibration     3          0.594              1.981              5.179
 Vibration     4          0.596              1.977              4.731
 Vibration     5          0.597              1.973              4.435
 Vibration     6          0.597              1.972              4.372
 Vibration     7          0.598              1.970              4.252
 Vibration     8          0.599              1.966              4.045
 Vibration     9          0.599              1.964              3.937
 Vibration    10          0.602              1.955              3.618
 Vibration    11          0.603              1.953              3.549
 Vibration    12          0.605              1.947              3.407
 Vibration    13          0.606              1.942              3.277
 Vibration    14          0.607              1.938              3.208
 Vibration    15          0.610              1.930              3.059
 Vibration    16          0.614              1.915              2.822
 Vibration    17          0.617              1.907              2.719
 Vibration    18          0.621              1.895              2.583
 Vibration    19          0.625              1.879              2.435
 Vibration    20          0.629              1.866              2.323
 Vibration    21          0.631              1.861              2.286
 Vibration    22          0.642              1.826              2.046
 Vibration    23          0.654              1.791              1.856
 Vibration    24          0.662              1.765              1.741
 Vibration    25          0.667              1.749              1.675
 Vibration    26          0.677              1.720              1.564
 Vibration    27          0.688              1.687              1.457
 Vibration    28          0.693              1.671              1.410
 Vibration    29          0.705              1.639              1.319
 Vibration    30          0.711              1.622              1.275
 Vibration    31          0.717              1.602              1.228
 Vibration    32          0.726              1.578              1.172
 Vibration    33          0.736              1.549              1.111
 Vibration    34          0.758              1.491              1.000
 Vibration    35          0.778              1.439              0.912
 Vibration    36          0.782              1.429              0.896
 Vibration    37          0.804              1.372              0.811
 Vibration    38          0.834              1.299              0.716
 Vibration    39          0.868              1.221              0.626
 Vibration    40          0.909              1.132              0.537
 Vibration    41          0.939              1.069              0.480

                           ! Non-Optimized Parameters !
 Normal termination of Gaussian 16 at Sun Jun 27 10:04:36 2021.
