 Gaussian 16, Revision A.03,
 Gaussian 16:  ES64L-G16RevA.03 25-Dec-2016

 ----------------------------------------------------------------------
 #p freq=noraman b3lyp scrf=(solvent=dichloromethane,pcm) pop=none empi
 ricaldispersion=gd3bj jul-cc-pvdz
 ----------------------------------------------------------------------

 -----
 title
 -----
 Symbolic Z-matrix:
 Charge =  0 Multiplicity = 6

                         Standard orientation:
 ---------------------------------------------------------------------
 Center     Atomic      Atomic             Coordinates (Angstroms)
 Number     Number       Type             X           Y           Z
 ---------------------------------------------------------------------
      1          6           0        2.785185   -1.883498   -1.249400
      2          6           0        1.867684   -0.812386   -1.311303
      3          6           0        2.199499    0.348110   -2.044188
      4          6           0        3.423740    0.434575   -2.695250
      5          6           0        4.337659   -0.624044   -2.607652
      6          6           0        4.019176   -1.779714   -1.883242
      7          6           0        0.591635   -0.880523   -0.615978
      8          6           0        0.049957   -2.194488   -0.089626
      9          6           0       -1.489026   -2.189292    0.010459
     10          6           0       -2.159524   -2.134904   -1.373319
     11          6           0       -3.658579   -2.040376   -1.263744
     12          6           0       -4.374208   -0.905046   -1.177373
     13          6           0       -5.874484   -0.937415   -1.037410
     14          8           0       -0.101399    0.146462   -0.424073
     15          6           0       -3.770214    0.475471   -1.197226
     16          1           0        1.483031    1.163224   -2.121430
     17          1           0        3.671405    1.326052   -3.270492
     18          1           0        5.301685   -0.550309   -3.112086
     19          1           0        4.733785   -2.599346   -1.817247
     20          1           0        2.550932   -2.786338   -0.688349
     21          1           0        0.378577   -3.012879   -0.736954
     22          6           0        0.651356   -2.471982    1.293296
     23          1           0       -1.800077   -3.100762    0.538690
     24          1           0       -1.806618   -1.333529    0.617031
     25          1           0       -1.761826   -1.280426   -1.937202
     26          1           0       -1.883970   -3.039525   -1.936032
     27          1           0       -4.198304   -2.991030   -1.210588
     28          1           0       -3.973188    0.992817   -0.246218
     29          1           0       -2.686065    0.473679   -1.348255
     30          1           0       -4.230753    1.086286   -1.989641
     31          1           0       -6.192103   -0.422278   -0.116381
     32          1           0       -6.356236   -0.406383   -1.874497
     33          1           0       -6.258294   -1.965944   -1.011077
     34          8           0        0.631341   -1.380168    2.056839
     35          8           0        1.055784   -3.562777    1.639593
     36          6           0        1.126155   -1.514003    3.425176
     37          6           0        0.969109   -0.166461    4.092815
     38          1           0        0.540748   -2.299644    3.918694
     39          1           0        2.173295   -1.838005    3.371750
     40          1           0        1.335405   -0.235019    5.126399
     41          1           0        1.546853    0.601859    3.563379
     42          1           0       -0.084736    0.140264    4.112901
     43         26           0       -0.028857    1.958947    0.321599
     44         17           0        2.069229    2.100747    1.018833
     45         17           0       -0.443933    3.257772   -1.425391
     46         17           0       -1.542342    2.004559    1.934261
 ---------------------------------------------------------------------

 SCF Done:  E(UB3LYP) =  -3531.58102680     A.U. after   23 cycles

 Isotropic polarizability for W=    0.000000      409.22 Bohr**3.
 End of Minotr F.D. properties file   721 does not exist.

                      1                      2                      3
                      A                      A                      A
 Frequencies --     19.9950                22.7458                28.4743
 Red. masses --      4.6129                 5.1717                 3.6786
 Frc consts  --      0.0011                 0.0016                 0.0018
 IR Inten    --      1.1694                 1.5751                 0.9621

                      4                      5                      6
                      A                      A                      A
 Frequencies --     37.3150                44.9927                55.6029
 Red. masses --      3.6868                 5.2274                 6.5574
 Frc consts  --      0.0030                 0.0062                 0.0119
 IR Inten    --      0.2410                 1.7927                 2.3166

                      7                      8                      9
                      A                      A                      A
 Frequencies --     56.6709                63.9976                64.9025
 Red. masses --      7.8858                 3.3551                 4.2258
 Frc consts  --      0.0149                 0.0081                 0.0105
 IR Inten    --      0.0413                 0.4547                 0.0553

                     10                     11                     12
                      A                      A                      A
 Frequencies --     68.3978                76.3201                90.7908
 Red. masses --      3.6804                 4.8336                17.6215
 Frc consts  --      0.0101                 0.0166                 0.0856
 IR Inten    --      0.5221                 1.3652                 2.2716

                     13                     14                     15
                      A                      A                      A
 Frequencies --     93.9669               106.1475               110.1299
 Red. masses --      4.8651                 6.3072                 4.7591
 Frc consts  --      0.0253                 0.0419                 0.0340
 IR Inten    --      1.2225                 3.8649                 2.0123

                     16                     17                     18
                      A                      A                      A
 Frequencies --    115.9816               128.5079               130.8152
 Red. masses --      7.0780                12.3148                 1.2038
 Frc consts  --      0.0561                 0.1198                 0.0121
 IR Inten    --      2.2916                 4.5145                 0.6213

                     19                     20                     21
                      A                      A                      A
 Frequencies --    141.3097               153.1285               170.8184
 Red. masses --      6.2958                 3.3084                 6.8243
 Frc consts  --      0.0741                 0.0457                 0.1173
 IR Inten    --     11.1699                 1.7924                19.1262

                     22                     23                     24
                      A                      A                      A
 Frequencies --    188.4028               202.1516               218.6650
 Red. masses --      1.5564                 3.2272                 1.7660
 Frc consts  --      0.0325                 0.0777                 0.0498
 IR Inten    --      2.3367                 3.7403                 4.1522

                     25                     26                     27
                      A                      A                      A
 Frequencies --    256.6462               264.1809               273.6080
 Red. masses --      2.4571                 1.9639                 7.1019
 Frc consts  --      0.0954                 0.0808                 0.3132
 IR Inten    --      5.4694                 5.2640                20.6644

                     28                     29                     30
                      A                      A                      A
 Frequencies --    306.8350               325.9376               331.5983
 Red. masses --      2.4018                27.8656                 5.6490
 Frc consts  --      0.1332                 1.7442                 0.3660
 IR Inten    --      0.9257                51.7199                14.6632

                     31                     32                     33
                      A                      A                      A
 Frequencies --    346.7150               375.7807               383.4573
 Red. masses --      3.7196                 3.9549                16.6872
 Frc consts  --      0.2634                 0.3290                 1.4457
 IR Inten    --      6.0767                34.4087               182.6793

                     34                     35                     36
                      A                      A                      A
 Frequencies --    385.4453               389.9926               405.2206
 Red. masses --      3.0546                28.4169                 2.9414
 Frc consts  --      0.2674                 2.5465                 0.2846
 IR Inten    --     29.1472               185.7441                 6.7253

                     37                     38                     39
                      A                      A                      A
 Frequencies --    408.0267               420.7267               443.8585
 Red. masses --      3.4225                 3.8274                 3.4742
 Frc consts  --      0.3357                 0.3992                 0.4033
 IR Inten    --      5.4550                 6.8671                26.2058

                     40                     41                     42
                      A                      A                      A
 Frequencies --    482.1432               533.3123               571.5250
 Red. masses --      2.4397                 4.6821                 3.1397
 Frc consts  --      0.3342                 0.7846                 0.6042
 IR Inten    --      5.7497                21.6326                13.4956

                     43                     44                     45
                      A                      A                      A
 Frequencies --    621.1322               631.7197               670.6368
 Red. masses --      6.2466                 5.8144                 3.5962
 Frc consts  --      1.4199                 1.3671                 0.9529
 IR Inten    --      2.1876                23.7292                25.9853

                     46                     47                     48
                      A                      A                      A
 Frequencies --    684.6304               736.6417               744.5889
 Red. masses --      1.6989                 2.9726                 1.7073
 Frc consts  --      0.4692                 0.9504                 0.5577
 IR Inten    --     60.2822                20.1974                12.1109

                     49                     50                     51
                      A                      A                      A
 Frequencies --    757.8967               796.5428               809.6017
 Red. masses --      3.0913                 3.1508                 1.1374
 Frc consts  --      1.0462                 1.1778                 0.4392
 IR Inten    --     29.6632                 5.5515                 2.0837

                     52                     53                     54
                      A                      A                      A
 Frequencies --    820.0092               838.5695               841.6885
 Red. masses --      3.0303                 1.4824                 1.3112
 Frc consts  --      1.2006                 0.6142                 0.5473
 IR Inten    --      0.5734                25.7167                11.5040

                     55                     56                     57
                      A                      A                      A
 Frequencies --    849.1675               884.2579               949.5314
 Red. masses --      2.6207                 2.9148                 2.5091
 Frc consts  --      1.1134                 1.3428                 1.3329
 IR Inten    --     24.6667                12.5695                 6.1205

                     58                     59                     60
                      A                      A                      A
 Frequencies --    961.5472               966.7437               978.0665
 Red. masses --      1.4189                 1.7424                 3.2240
 Frc consts  --      0.7729                 0.9595                 1.8171
 IR Inten    --      1.3036                 7.2874                52.6472

                     61                     62                     63
                      A                      A                      A
 Frequencies --    996.9984              1000.1498              1000.8787
 Red. masses --      1.4186                 2.6553                 1.5568
 Frc consts  --      0.8308                 1.5649                 0.9189
 IR Inten    --      2.7348                15.4043                 5.9285

                     64                     65                     66
                      A                      A                      A
 Frequencies --   1011.6814              1019.9006              1035.2357
 Red. masses --      2.3929                 1.3560                 2.7853
 Frc consts  --      1.4430                 0.8310                 1.7587
 IR Inten    --     18.1379                 0.8175                52.3466

                     67                     68                     69
                      A                      A                      A
 Frequencies --   1047.1249              1049.9473              1067.1226
 Red. masses --      2.4647                 3.0554                 2.0202
 Frc consts  --      1.5923                 1.9845                 1.3554
 IR Inten    --     20.3072                72.6207                29.6916

                     70                     71                     72
                      A                      A                      A
 Frequencies --   1083.2604              1097.0582              1120.8397
 Red. masses --      2.7002                 1.6978                 1.5988
 Frc consts  --      1.8669                 1.2039                 1.1834
 IR Inten    --      8.3726                 0.0444                 7.5862

                     73                     74                     75
                      A                      A                      A
 Frequencies --   1127.9555              1133.7309              1168.0072
 Red. masses --      1.8224                 2.1665                 1.5404
 Frc consts  --      1.3661                 1.6407                 1.2382
 IR Inten    --     35.5997                14.6475                 9.1927

                     76                     77                     78
                      A                      A                      A
 Frequencies --   1174.0303              1179.5608              1201.9132
 Red. masses --      1.4865                 1.0880                 1.1745
 Frc consts  --      1.2072                 0.8919                 0.9997
 IR Inten    --     19.6426                 0.7368               122.0704

                     79                     80                     81
                      A                      A                      A
 Frequencies --   1211.2741              1246.8547              1262.8977
 Red. masses --      2.1148                 2.0294                 1.9845
 Frc consts  --      1.8281                 1.8588                 1.8649
 IR Inten    --    288.6773                57.7119               305.0518

                     82                     83                     84
                      A                      A                      A
 Frequencies --   1283.7532              1284.7606              1316.2414
 Red. masses --      1.3951                 1.2883                 1.3596
 Frc consts  --      1.3546                 1.2529                 1.3878
 IR Inten    --     41.4267                44.3940                29.8450

                     85                     86                     87
                      A                      A                      A
 Frequencies --   1319.5224              1336.3089              1358.4166
 Red. masses --      1.4079                 1.4697                 1.3480
 Frc consts  --      1.4443                 1.5462                 1.4655
 IR Inten    --    114.4551                 9.0439                13.3343

                     88                     89                     90
                      A                      A                      A
 Frequencies --   1373.8949              1376.1436              1379.8186
 Red. masses --      1.4529                 2.9441                 1.3979
 Frc consts  --      1.6158                 3.2850                 1.5681
 IR Inten    --      7.6979                32.3539                26.6130

                     91                     92                     93
                      A                      A                      A
 Frequencies --   1384.6484              1396.7172              1404.7875
 Red. masses --      2.0936                 1.3773                 1.3301
 Frc consts  --      2.3649                 1.5830                 1.5465
 IR Inten    --    118.3307                 9.0699                 6.6586

                     94                     95                     96
                      A                      A                      A
 Frequencies --   1411.8371              1456.9149              1464.3626
 Red. masses --      1.4196                 1.0481                 1.0655
 Frc consts  --      1.6672                 1.3108                 1.3462
 IR Inten    --     18.2849                 2.2745                11.8803

                     97                     98                     99
                      A                      A                      A
 Frequencies --   1467.1131              1470.0850              1473.3212
 Red. masses --      1.0384                 2.3461                 1.0552
 Frc consts  --      1.3169                 2.9873                 1.3496
 IR Inten    --      8.6464                69.6322                28.4060

                    100                    101                    102
                      A                      A                      A
 Frequencies --   1475.2593              1477.5666              1479.0804
 Red. masses --      1.0703                 1.0571                 1.0851
 Frc consts  --      1.3724                 1.3598                 1.3987
 IR Inten    --     19.0474                 6.0072                 6.0485

                    103                    104                    105
                      A                      A                      A
 Frequencies --   1494.9815              1501.3342              1519.4607
 Red. masses --      1.0918                 1.0866                 2.2580
 Frc consts  --      1.4377                 1.4430                 3.0715
 IR Inten    --     11.6417                18.8317                37.1108

                    106                    107                    108
                      A                      A                      A
 Frequencies --   1569.4510              1618.0238              1644.0708
 Red. masses --      7.4378                 5.5188                 6.0708
 Frc consts  --     10.7942                 8.5126                 9.6680
 IR Inten    --   1350.8318               112.1160                99.5329

                    109                    110                    111
                      A                      A                      A
 Frequencies --   1728.5898              1751.1679              3009.4170
 Red. masses --      6.7169                11.5961                 1.0377
 Frc consts  --     11.8251                20.9516                 5.5372
 IR Inten    --     26.1414               538.0291                52.0569

                    112                    113                    114
                      A                      A                      A
 Frequencies --   3020.9258              3036.8258              3045.7891
 Red. masses --      1.0414                 1.0620                 1.0351
 Frc consts  --      5.5993                 5.7705                 5.6577
 IR Inten    --     56.6528                38.8700                16.1769

                    115                    116                    117
                      A                      A                      A
 Frequencies --   3061.2350              3061.7179              3068.5674
 Red. masses --      1.0992                 1.0650                 1.0985
 Frc consts  --      6.0688                 5.8822                 6.0945
 IR Inten    --     22.4063                25.2568                35.8535

                    118                    119                    120
                      A                      A                      A
 Frequencies --   3068.8076              3082.4188              3109.5824
 Red. masses --      1.0579                 1.0959                 1.1005
 Frc consts  --      5.8699                 6.1350                 6.2698
 IR Inten    --     24.2346                23.2910                33.1723

                    121                    122                    123
                      A                      A                      A
 Frequencies --   3115.5093              3116.6153              3125.0868
 Red. masses --      1.0932                 1.1071                 1.1016
 Frc consts  --      6.2521                 6.3360                 6.3385
 IR Inten    --      3.6620                 4.4304                26.7823

                    124                    125                    126
                      A                      A                      A
 Frequencies --   3127.1052              3130.0108              3139.6818
 Red. masses --      1.0936                 1.0905                 1.1064
 Frc consts  --      6.3009                 6.2948                 6.4262
 IR Inten    --     14.6509                67.0373                34.4674

                    127                    128                    129
                      A                      A                      A
 Frequencies --   3141.5632              3186.1934              3198.2880
 Red. masses --      1.0959                 1.0868                 1.0896
 Frc consts  --      6.3724                 6.5004                 6.5666
 IR Inten    --     32.7243                 0.9569                 5.9924

                    130                    131                    132
                      A                      A                      A
 Frequencies --   3204.0917              3213.6594              3217.9316
 Red. masses --      1.0934                 1.0960                 1.0959
 Frc consts  --      6.6136                 6.6690                 6.6864
 IR Inten    --      8.1684                 4.6125                 9.4264

 - Thermochemistry -
 -------------------
 Temperature   298.150 Kelvin.  Pressure   1.00000 Atm.
 Atom     1 has atomic number  6 and mass  12.00000

 Molecular mass:   434.99839 amu.
 Principal axes and moments of inertia in atomic units:
                           1         2         3
     Eigenvalues --  ******************************
           X            0.99958   0.02225   0.01876
           Y           -0.02207   0.99971  -0.00974
           Z           -0.01898   0.00932   0.99978
 This molecule is an asymmetric top.
 Rotational symmetry number  1.
 Warning -- assumption of classical behavior for rotation
           may cause significant error
 Rotational temperatures (Kelvin)      0.00842     0.00668     0.00603
 Rotational constants (GHZ):           0.17537     0.13921     0.12570
 Zero-point vibrational energy     943693.8 (Joules/Mol)
                                  225.54824 (Kcal/Mol)
 Warning -- explicit consideration of  42 degrees of freedom as
           vibrations may cause significant error
 Vibrational temperatures:     28.77    32.73    40.97    53.69    64.73
          (Kelvin)             80.00    81.54    92.08    93.38    98.41
                              109.81   130.63   135.20   152.72   158.45
                              166.87   184.89   188.21   203.31   220.32
                              245.77   271.07   290.85   314.61   369.26
                              380.10   393.66   441.47   468.95   477.10
                              498.85   540.66   551.71   554.57   561.11
                              583.02   587.06   605.33   638.61   693.70
                              767.32   822.30   893.67   908.90   964.90
                              985.03  1059.86  1071.30  1090.44  1146.05
                             1164.84  1179.81  1206.51  1211.00  1221.76
                             1272.25  1366.16  1383.45  1390.93  1407.22
                             1434.46  1438.99  1440.04  1455.58  1467.41
                             1489.47  1506.58  1510.64  1535.35  1558.57
                             1578.42  1612.64  1622.88  1631.19  1680.50
                             1689.17  1697.12  1729.29  1742.75  1793.95
                             1817.03  1847.03  1848.48  1893.78  1898.50
                             1922.65  1954.46  1976.73  1979.96  1985.25
                             1992.20  2009.56  2021.18  2031.32  2096.18
                             2106.89  2110.85  2115.12  2119.78  2122.57
                             2125.89  2128.07  2150.94  2160.09  2186.17
                             2258.09  2327.98  2365.45  2487.06  2519.54
                             4329.88  4346.44  4369.32  4382.21  4404.43
                             4405.13  4414.98  4415.33  4434.91  4474.00
                             4482.52  4484.11  4496.30  4499.21  4503.39
                             4517.30  4520.01  4584.22  4601.62  4609.97
                             4623.74  4629.89

 Zero-point correction=                           0.359434 (Hartree/Particle)
 Thermal correction to Energy=                    0.388283
 Thermal correction to Enthalpy=                  0.389227
 Thermal correction to Gibbs Free Energy=         0.293631
 Sum of electronic and zero-point Energies=          -3531.221593
 Sum of electronic and thermal Energies=             -3531.192744
 Sum of electronic and thermal Enthalpies=           -3531.191800
 Sum of electronic and thermal Free Energies=        -3531.287396

                     E (Thermal)             CV                S
                      KCal/Mol        Cal/Mol-Kelvin    Cal/Mol-Kelvin
 Total                  243.651             99.874            201.199
 Electronic               0.000              0.000              3.561
 Translational            0.889              2.981             44.100
 Rotational               0.889              2.981             35.903
 Vibrational            241.874             93.913            117.635
 Vibration     1          0.593              1.986              6.635
 Vibration     2          0.593              1.985              6.379
 Vibration     3          0.593              1.984              5.933
 Vibration     4          0.594              1.982              5.397
 Vibration     5          0.595              1.979              5.026
 Vibration     6          0.596              1.975              4.607
 Vibration     7          0.596              1.975              4.570
 Vibration     8          0.597              1.971              4.330
 Vibration     9          0.597              1.971              4.302
 Vibration    10          0.598              1.969              4.199
 Vibration    11          0.599              1.965              3.983
 Vibration    12          0.602              1.956              3.643
 Vibration    13          0.603              1.954              3.576
 Vibration    14          0.605              1.944              3.338
 Vibration    15          0.606              1.941              3.267
 Vibration    16          0.608              1.936              3.166
 Vibration    17          0.611              1.925              2.968
 Vibration    18          0.612              1.923              2.934
 Vibration    19          0.615              1.912              2.786
 Vibration    20          0.619              1.899              2.633
 Vibration    21          0.626              1.878              2.426
 Vibration    22          0.633              1.856              2.243
 Vibration    23          0.639              1.837              2.113
 Vibration    24          0.646              1.813              1.970
 Vibration    25          0.666              1.752              1.684
 Vibration    26          0.671              1.739              1.634
 Vibration    27          0.676              1.722              1.573
 Vibration    28          0.697              1.661              1.379
 Vibration    29          0.710              1.624              1.280
 Vibration    30          0.714              1.612              1.252
 Vibration    31          0.725              1.582              1.181
 Vibration    32          0.747              1.522              1.056
 Vibration    33          0.753              1.505              1.025
 Vibration    34          0.754              1.501              1.018
 Vibration    35          0.758              1.492              1.000
 Vibration    36          0.770              1.459              0.944
 Vibration    37          0.773              1.453              0.934
 Vibration    38          0.783              1.425              0.890
 Vibration    39          0.803              1.374              0.815
 Vibration    40          0.838              1.290              0.704
 Vibration    41          0.888              1.176              0.580
 Vibration    42          0.928              1.093              0.501

 Normal termination of Gaussian 16 at Sun Jul 11 02:31:30 2021.
