 Gaussian 16, Revision A.03,
 Gaussian 16:  ES64L-G16RevA.03 25-Dec-2016

 ----------------------------------------------------------------------
 #p opt=(calcfc,ts,maxstep=5,noeigentest) freq=noraman b3lyp scrf=(solv
 ent=dichloroethane,pcm) pop=none empiricaldispersion=gd3bj jul-cc-pvdz
 ----------------------------------------------------------------------

 -----
 title
 -----
 Symbolic Z-matrix:
 Charge =  0 Multiplicity = 6

 SCF Done:  E(UB3LYP) =  -3531.55763685     A.U. after   25 cycles
 Optimization completed.
    -- Stationary point found.
 Normal termination of Gaussian 16 at Tue Jul 13 01:51:12 2021.

 ----------------------------------------------------------------------
 #P Geom=AllCheck Guess=TCheck SCRF=Check GenChk UB3LYP/Jul-CC-pVDZ Fre
 q
 ----------------------------------------------------------------------

 Structure from the checkpoint file:  "/scratch/kwaneu.3017073.bmbhpcps002/Gau-29899.chk"
 -----
 title
 -----
 Charge =  0 Multiplicity = 6

                         Standard orientation:
 ---------------------------------------------------------------------
 Center     Atomic      Atomic             Coordinates (Angstroms)
 Number     Number       Type             X           Y           Z
 ---------------------------------------------------------------------
      1          6           0       -3.169519    0.936854   -1.328916
      2          6           0       -2.223202    0.134907   -0.670876
      3          6           0       -2.323669   -1.257139   -0.796293
      4          6           0       -3.335288   -1.833640   -1.569581
      5          6           0       -4.268634   -1.027896   -2.225427
      6          6           0       -4.181032    0.362658   -2.100116
      7          6           0       -1.144657    0.750304    0.209434
      8          6           0       -0.649048    2.154130   -0.301512
      9          6           0       -1.384258    3.207056    0.543763
     10          6           0       -1.489759    2.586551    1.943922
     11          6           0       -1.775576    1.102717    1.683933
     12          6           0       -1.126757    0.088060    2.528764
     13          6           0       -1.760319   -1.219837    2.701668
     14          8           0       -0.087688   -0.141284    0.429443
     15         26           0        1.228884   -1.335312   -0.019482
     16         17           0        0.534604   -3.314458    0.861460
     17          6           0        0.120758    0.363556    3.245973
     18         17           0        3.082429   -0.757612    1.117039
     19         17           0        1.652951   -1.614516   -2.196065
     20          1           0       -1.611615   -1.905050   -0.294289
     21          1           0       -3.387531   -2.919195   -1.659251
     22          1           0       -5.056656   -1.476969   -2.830887
     23          1           0       -4.900402    1.005867   -2.607972
     24          1           0       -3.131134    2.021280   -1.250229
     25          1           0       -0.869673    2.241515   -1.368587
     26          6           0        0.857010    2.278890   -0.137199
     27          1           0       -0.856542    4.167324    0.554628
     28          1           0       -2.383050    3.384630    0.126617
     29          1           0       -0.543817    2.725179    2.473197
     30          1           0       -2.287054    3.035496    2.547352
     31          1           0       -2.849679    0.905756    1.630010
     32          1           0        0.763978    1.070066    2.712108
     33          1           0       -0.192554    0.857571    4.188094
     34          1           0        0.654596   -0.554040    3.511055
     35          1           0       -1.855505   -1.414726    3.783740
     36          1           0       -2.729649   -1.311008    2.206981
     37          1           0       -1.059312   -1.993729    2.338407
     38          8           0        1.487552    2.014506   -1.285190
     39          8           0        1.421208    2.605924    0.891527
     40          6           0        2.942072    2.130262   -1.282247
     41          6           0        3.415229    1.869811   -2.695103
     42          1           0        3.199291    3.138833   -0.933977
     43          1           0        3.335824    1.398592   -0.567941
     44          1           0        4.510868    1.948983   -2.728117
     45          1           0        3.127075    0.861586   -3.019290
     46          1           0        2.993131    2.605469   -3.393869
 ---------------------------------------------------------------------

 SCF Done:  E(UB3LYP) =  -3531.55763685     A.U. after    1 cycles

 Isotropic polarizability for W=    0.000000      402.94 Bohr**3.
 End of Minotr F.D. properties file   721 does not exist.

 ******    1 imaginary frequencies (negative Signs) ******

                      1                      2                      3
                      A                      A                      A
 Frequencies --   -174.7691                24.7948                47.7987
 Red. masses --      3.9806                 4.2070                 5.0043
 Frc consts  --      0.0716                 0.0015                 0.0067
 IR Inten    --     37.8753                 3.5707                 3.0278

                      4                      5                      6
                      A                      A                      A
 Frequencies --     53.5206                57.2660                69.6413
 Red. masses --      3.9162                 5.0087                 6.6107
 Frc consts  --      0.0066                 0.0097                 0.0189
 IR Inten    --      3.7906                 1.7724                 1.9280

                      7                      8                      9
                      A                      A                      A
 Frequencies --     75.1986                86.1257                90.4059
 Red. masses --      4.8108                 8.1980                 5.1412
 Frc consts  --      0.0160                 0.0358                 0.0248
 IR Inten    --      3.2030                 1.1146                 1.0091

                     10                     11                     12
                      A                      A                      A
 Frequencies --     95.9108               104.9085               105.7498
 Red. masses --      4.9262                 8.1006                 9.4981
 Frc consts  --      0.0267                 0.0525                 0.0626
 IR Inten    --     29.2257                 1.4797                 2.2135

                     13                     14                     15
                      A                      A                      A
 Frequencies --    113.4431               127.2839               132.5727
 Red. masses --      5.6786                 4.9001                 6.1863
 Frc consts  --      0.0431                 0.0468                 0.0641
 IR Inten    --      4.3543                 6.8407                 4.0434

                     16                     17                     18
                      A                      A                      A
 Frequencies --    138.2503               146.4034               152.2925
 Red. masses --      3.6397                 2.9511                 2.0832
 Frc consts  --      0.0410                 0.0373                 0.0285
 IR Inten    --     10.0564                 6.3071                12.5374

                     19                     20                     21
                      A                      A                      A
 Frequencies --    171.9585               187.8275               197.3606
 Red. masses --      2.7401                 2.9006                 2.0200
 Frc consts  --      0.0477                 0.0603                 0.0464
 IR Inten    --      3.1403                14.7253                 3.0322

                     22                     23                     24
                      A                      A                      A
 Frequencies --    214.1579               231.4644               258.0167
 Red. masses --      3.3743                 1.6914                 2.1594
 Frc consts  --      0.0912                 0.0534                 0.0847
 IR Inten    --      0.1542                24.2945                13.4708

                     25                     26                     27
                      A                      A                      A
 Frequencies --    259.8998               275.9683               296.4211
 Red. masses --      3.5656                 3.3318                 3.3280
 Frc consts  --      0.1419                 0.1495                 0.1723
 IR Inten    --      6.8672                 7.7997                 6.3618

                     28                     29                     30
                      A                      A                      A
 Frequencies --    314.3405               319.5334               332.3939
 Red. masses --      2.4109                21.8155                 4.6843
 Frc consts  --      0.1404                 1.3123                 0.3049
 IR Inten    --      0.7944                88.2267                15.4432

                     31                     32                     33
                      A                      A                      A
 Frequencies --    343.2082               351.0501               363.9782
 Red. masses --     12.6458                 6.4916                19.2733
 Frc consts  --      0.8776                 0.4713                 1.5044
 IR Inten    --     70.5099                98.3831               156.7582

                     34                     35                     36
                      A                      A                      A
 Frequencies --    382.2892               408.6118               423.3499
 Red. masses --      4.4142                 3.2838                 3.0545
 Frc consts  --      0.3801                 0.3230                 0.3225
 IR Inten    --     53.9174                 5.1796                 0.0724

                     37                     38                     39
                      A                      A                      A
 Frequencies --    428.6406               475.0472               507.3084
 Red. masses --      3.9842                 2.9705                 3.2462
 Frc consts  --      0.4313                 0.3950                 0.4922
 IR Inten    --      5.6221                 6.6524                10.9086

                     40                     41                     42
                      A                      A                      A
 Frequencies --    530.7996               566.2114               628.8963
 Red. masses --      2.5621                 3.2333                 5.5193
 Frc consts  --      0.4253                 0.6107                 1.2861
 IR Inten    --     14.3490                11.4792                 2.4472

                     43                     44                     45
                      A                      A                      A
 Frequencies --    639.3495               667.0717               695.9615
 Red. masses --      3.5585                 4.1966                 4.6471
 Frc consts  --      0.8570                 1.1003                 1.3262
 IR Inten    --     23.6029                62.2411                98.9442

                     46                     47                     48
                      A                      A                      A
 Frequencies --    715.6513               736.4922               751.2274
 Red. masses --      1.6343                 3.5206                 3.1713
 Frc consts  --      0.4932                 1.1251                 1.0545
 IR Inten    --     72.5357                 9.6310                70.4921

                     49                     50                     51
                      A                      A                      A
 Frequencies --    800.3197               809.7635               814.0103
 Red. masses --      2.6063                 1.3804                 1.4423
 Frc consts  --      0.9836                 0.5333                 0.5631
 IR Inten    --     16.1502                 8.5845                 3.9242

                     52                     53                     54
                      A                      A                      A
 Frequencies --    846.4130               854.5229               862.6208
 Red. masses --      1.9948                 1.3688                 2.2017
 Frc consts  --      0.8420                 0.5889                 0.9653
 IR Inten    --      7.8034                 0.6037                17.3535

                     55                     56                     57
                      A                      A                      A
 Frequencies --    865.6502               907.3455               922.6752
 Red. masses --      2.7730                 3.9537                 3.7802
 Frc consts  --      1.2243                 1.9178                 1.8961
 IR Inten    --     40.0197                34.5265                30.5283

                     58                     59                     60
                      A                      A                      A
 Frequencies --    942.7691               956.2764               974.6317
 Red. masses --      1.5695                 2.0582                 2.4457
 Frc consts  --      0.8219                 1.1089                 1.3688
 IR Inten    --      5.3332                 7.3156                49.4577

                     61                     62                     63
                      A                      A                      A
 Frequencies --    991.7892               994.2139              1003.6394
 Red. masses --      1.5168                 1.3414                 3.1974
 Frc consts  --      0.8791                 0.7812                 1.8976
 IR Inten    --     16.1846                 1.6507                38.9650

                     64                     65                     66
                      A                      A                      A
 Frequencies --   1009.2184              1011.9481              1026.1377
 Red. masses --      3.5798                 2.0230                 1.3132
 Frc consts  --      2.1482                 1.2206                 0.8147
 IR Inten    --     14.2640                74.1633                 1.6702

                     67                     68                     69
                      A                      A                      A
 Frequencies --   1036.9140              1052.5428              1058.2984
 Red. masses --      2.5216                 2.0860                 2.1514
 Frc consts  --      1.5974                 1.3616                 1.4197
 IR Inten    --      9.7010                35.5585                14.0518

                     70                     71                     72
                      A                      A                      A
 Frequencies --   1072.7310              1091.1830              1112.1124
 Red. masses --      2.0039                 2.6100                 2.0321
 Frc consts  --      1.3587                 1.8310                 1.4808
 IR Inten    --     98.0696                76.1732                89.2695

                     73                     74                     75
                      A                      A                      A
 Frequencies --   1131.4015              1136.7668              1165.7621
 Red. masses --      2.1210                 2.1705                 1.6621
 Frc consts  --      1.5997                 1.6526                 1.3308
 IR Inten    --     14.5037                94.0440                27.3286

                     76                     77                     78
                      A                      A                      A
 Frequencies --   1171.2885              1172.4745              1184.1970
 Red. masses --      1.5460                 1.0958                 1.3819
 Frc consts  --      1.2496                 0.8875                 1.1417
 IR Inten    --     10.8078                 4.6437                45.4540

                     79                     80                     81
                      A                      A                      A
 Frequencies --   1209.5415              1210.9358              1218.0947
 Red. masses --      2.2820                 1.4988                 1.2012
 Frc consts  --      1.9670                 1.2949                 1.0501
 IR Inten    --    357.4787                84.1746                13.4982

                     82                     83                     84
                      A                      A                      A
 Frequencies --   1244.4665              1260.3568              1279.3294
 Red. masses --      2.6543                 1.6997                 1.6206
 Frc consts  --      2.4220                 1.5908                 1.5628
 IR Inten    --    151.4701               215.3350                99.6292

                     85                     86                     87
                      A                      A                      A
 Frequencies --   1287.6789              1313.1882              1322.3781
 Red. masses --      1.1038                 1.2244                 1.4194
 Frc consts  --      1.0784                 1.2440                 1.4624
 IR Inten    --      2.5067                61.8939                24.5539

                     88                     89                     90
                      A                      A                      A
 Frequencies --   1331.9265              1340.7981              1345.7354
 Red. masses --      1.4100                 2.5994                 1.1927
 Frc consts  --      1.4737                 2.7532                 1.2727
 IR Inten    --     36.3855                11.2835                34.6541

                     91                     92                     93
                      A                      A                      A
 Frequencies --   1364.9233              1366.0326              1384.7589
 Red. masses --      1.8800                 1.3331                 2.0778
 Frc consts  --      2.0636                 1.4657                 2.3475
 IR Inten    --      1.2222                56.8640               110.5072

                     94                     95                     96
                      A                      A                      A
 Frequencies --   1391.5372              1397.3650              1415.7100
 Red. masses --      1.5057                 1.1538                 1.6442
 Frc consts  --      1.7178                 1.3274                 1.9416
 IR Inten    --    139.5023                25.0736                31.6465

                     97                     98                     99
                      A                      A                      A
 Frequencies --   1432.8733              1441.1473              1466.8374
 Red. masses --      1.1727                 1.1643                 1.0395
 Frc consts  --      1.4185                 1.4247                 1.3178
 IR Inten    --     24.9445                 8.8264                 4.4334

                    100                    101                    102
                      A                      A                      A
 Frequencies --   1469.3550              1475.5363              1479.8893
 Red. masses --      2.1569                 1.1712                 1.0530
 Frc consts  --      2.7437                 1.5024                 1.3588
 IR Inten    --     15.1389                15.5599                 1.8174

                    103                    104                    105
                      A                      A                      A
 Frequencies --   1487.6695              1489.5692              1501.9173
 Red. masses --      1.1537                 1.3714                 1.1882
 Frc consts  --      1.5044                 1.7928                 1.5792
 IR Inten    --     19.8699                22.8472                25.8065

                    106                    107                    108
                      A                      A                      A
 Frequencies --   1504.0879              1526.1332              1626.0977
 Red. masses --      1.0918                 2.1266                 5.6254
 Frc consts  --      1.4552                 2.9183                 8.7639
 IR Inten    --      5.8783                 9.1291                 1.0206

                    109                    110                    111
                      A                      A                      A
 Frequencies --   1644.3757              1742.6327              2977.2363
 Red. masses --      5.7434                10.9936                 1.0496
 Frc consts  --      9.1500                19.6700                 5.4815
 IR Inten    --      0.7352               364.8128               133.9469

                    112                    113                    114
                      A                      A                      A
 Frequencies --   2987.7506              3039.3598              3049.4601
 Red. masses --      1.0556                 1.0354                 1.0835
 Frc consts  --      5.5521                 5.6353                 5.9363
 IR Inten    --     45.5166                28.4467                27.7626

                    115                    116                    117
                      A                      A                      A
 Frequencies --   3069.1221              3072.5343              3088.5450
 Red. masses --      1.0600                 1.0624                 1.0651
 Frc consts  --      5.8828                 5.9091                 5.9861
 IR Inten    --     29.7982                35.5709                43.0356

                    118                    119                    120
                      A                      A                      A
 Frequencies --   3103.4980              3111.4518              3115.5014
 Red. masses --      1.0730                 1.1032                 1.0870
 Frc consts  --      6.0891                 6.2924                 6.2164
 IR Inten    --     16.2268                19.8887                15.6672

                    121                    122                    123
                      A                      A                      A
 Frequencies --   3122.5520              3123.5853              3127.8697
 Red. masses --      1.1028                 1.1016                 1.0861
 Frc consts  --      6.3353                 6.3325                 6.2608
 IR Inten    --     17.3030                14.3717                10.7529

                    124                    125                    126
                      A                      A                      A
 Frequencies --   3139.0168              3155.9899              3173.8932
 Red. masses --      1.1072                 1.1008                 1.1075
 Frc consts  --      6.4278                 6.4602                 6.5731
 IR Inten    --     23.8238                17.1110                 6.4321

                    127                    128                    129
                      A                      A                      A
 Frequencies --   3174.4057              3175.4198              3183.7933
 Red. masses --      1.0855                 1.1004                 1.0905
 Frc consts  --      6.4448                 6.5371                 6.5127
 IR Inten    --      0.0259                11.1239                15.2543

                    130                    131                    132
                      A                      A                      A
 Frequencies --   3196.3740              3209.3977              3235.4430
 Red. masses --      1.0960                 1.0932                 1.0908
 Frc consts  --      6.5974                 6.6343                 6.7275
 IR Inten    --     29.6237                15.7065                 6.0438

 - Thermochemistry -
 -------------------
 Temperature   298.150 Kelvin.  Pressure   1.00000 Atm.
 Atom     1 has atomic number  6 and mass  12.00000

 Molecular mass:   434.99839 amu.
 Principal axes and moments of inertia in atomic units:
                           1         2         3
     Eigenvalues --  8853.36325********************
           X            0.99744   0.06635  -0.02675
           Y           -0.06706   0.99739  -0.02672
           Z            0.02491   0.02844   0.99929
 This molecule is an asymmetric top.
 Rotational symmetry number  1.
 Warning -- assumption of classical behavior for rotation
           may cause significant error
 Rotational temperatures (Kelvin)      0.00978     0.00796     0.00715
 Rotational constants (GHZ):           0.20385     0.16582     0.14893
    1 imaginary frequencies ignored.
 Zero-point vibrational energy     944336.6 (Joules/Mol)
                                  225.70186 (Kcal/Mol)
 Warning -- explicit consideration of  40 degrees of freedom as
           vibrations may cause significant error
 Vibrational temperatures:     35.67    68.77    77.00    82.39   100.20
          (Kelvin)            108.19   123.92   130.07   137.99   150.94
                              152.15   163.22   183.13   190.74   198.91
                              210.64   219.11   247.41   270.24   283.96
                              308.13   333.03   371.23   373.94   397.06
                              426.48   452.27   459.74   478.24   493.80
                              505.08   523.68   550.03   587.90   609.11
                              616.72   683.49   729.90   763.70   814.65
                              904.84   919.88   959.77  1001.33  1029.66
                             1059.65  1080.85  1151.48  1165.07  1171.18
                             1217.80  1229.47  1241.12  1245.48  1305.47
                             1327.52  1356.43  1375.87  1402.28  1426.96
                             1430.45  1444.01  1452.04  1455.97  1476.38
                             1491.89  1514.37  1522.66  1543.42  1569.97
                             1600.08  1627.83  1635.55  1677.27  1685.22
                             1686.93  1703.80  1740.26  1742.27  1752.57
                             1790.51  1813.37  1840.67  1852.68  1889.38
                             1902.61  1916.35  1929.11  1936.21  1963.82
                             1965.42  1992.36  2002.11  2010.50  2036.89
                             2061.59  2073.49  2110.45  2114.07  2122.97
                             2129.23  2140.42  2143.16  2160.92  2164.05
                             2195.77  2339.59  2365.89  2507.26  4283.58
                             4298.71  4372.96  4387.49  4415.78  4420.69
                             4443.73  4465.24  4476.69  4482.51  4492.66
                             4494.14  4500.31  4516.34  4540.77  4566.52
                             4567.26  4568.72  4580.77  4598.87  4617.61
                             4655.08

 Zero-point correction=                           0.359679 (Hartree/Particle)
 Thermal correction to Energy=                    0.386418
 Thermal correction to Enthalpy=                  0.387362
 Thermal correction to Gibbs Free Energy=         0.300364
 Sum of electronic and zero-point Energies=          -3531.197958
 Sum of electronic and thermal Energies=             -3531.171219
 Sum of electronic and thermal Enthalpies=           -3531.170275
 Sum of electronic and thermal Free Energies=        -3531.257273

                     E (Thermal)             CV                S
                      KCal/Mol        Cal/Mol-Kelvin    Cal/Mol-Kelvin
 Total                  242.481             96.770            183.102
 Electronic               0.000              0.000              3.561
 Translational            0.889              2.981             44.100
 Rotational               0.889              2.981             35.411
 Vibrational            240.703             90.808            100.030
 Vibration     1          0.593              1.985              6.208
 Vibration     2          0.595              1.978              4.906
 Vibration     3          0.596              1.976              4.683
 Vibration     4          0.596              1.975              4.549
 Vibration     5          0.598              1.969              4.163
 Vibration     6          0.599              1.966              4.012
 Vibration     7          0.601              1.959              3.746
 Vibration     8          0.602              1.956              3.651
 Vibration     9          0.603              1.952              3.536
 Vibration    10          0.605              1.945              3.361
 Vibration    11          0.605              1.945              3.345
 Vibration    12          0.607              1.938              3.209
 Vibration    13          0.611              1.926              2.987
 Vibration    14          0.613              1.921              2.908
 Vibration    15          0.614              1.915              2.828
 Vibration    16          0.617              1.907              2.718
 Vibration    17          0.619              1.900              2.643
 Vibration    18          0.626              1.877              2.414
 Vibration    19          0.633              1.857              2.249
 Vibration    20          0.637              1.844              2.158
 Vibration    21          0.644              1.819              2.008
 Vibration    22          0.653              1.793              1.868
 Vibration    23          0.667              1.749              1.675
 Vibration    24          0.668              1.746              1.662
 Vibration    25          0.678              1.718              1.559
 Vibration    26          0.690              1.680              1.437
 Vibration    27          0.702              1.646              1.339
 Vibration    28          0.705              1.636              1.312
 Vibration    29          0.714              1.611              1.248
 Vibration    30          0.722              1.589              1.197
 Vibration    31          0.728              1.573              1.161
 Vibration    32          0.738              1.546              1.105
 Vibration    33          0.752              1.508              1.030
 Vibration    34          0.773              1.452              0.932
 Vibration    35          0.786              1.419              0.881
 Vibration    36          0.790              1.408              0.863
 Vibration    37          0.832              1.305              0.724
 Vibration    38          0.863              1.234              0.640
 Vibration    39          0.886              1.182              0.585
 Vibration    40          0.922              1.104              0.512

 Optimization completed.
    -- Stationary point found.
 Normal termination of Gaussian 16 at Tue Jul 13 06:29:23 2021.
