 Gaussian 16, Revision A.03,
 Gaussian 16:  ES64L-G16RevA.03 25-Dec-2016

 ----------------------------------------------------------------------
 #p opt=(calcfc,ts,maxstep=5,noeigentest) freq=noraman b3lyp scrf=(solv
 ent=dichloroethane,pcm) pop=none empiricaldispersion=gd3bj jul-cc-pvdz
 ----------------------------------------------------------------------

 -----
 title
 -----
 Symbolic Z-matrix:
 Charge =  0 Multiplicity = 6

 SCF Done:  E(UB3LYP) =  -3531.55559011     A.U. after   25 cycles
 SCF Done:  E(UB3LYP) =  -3531.55558947     A.U. after    9 cycles
 SCF Done:  E(UB3LYP) =  -3531.55558065     A.U. after   13 cycles
 SCF Done:  E(UB3LYP) =  -3531.55558918     A.U. after   13 cycles
 Optimization completed.
    -- Stationary point found.
 Normal termination of Gaussian 16 at Wed Jul 14 05:01:17 2021.

 ----------------------------------------------------------------------
 #P Geom=AllCheck Guess=TCheck SCRF=Check GenChk UB3LYP/Jul-CC-pVDZ Fre
 q
 ----------------------------------------------------------------------

 Structure from the checkpoint file:  "/scratch/kwaneu.3017249.bmbhpcps002/Gau-47348.chk"
 -----
 title
 -----
 Charge =  0 Multiplicity = 6

                         Standard orientation:
 ---------------------------------------------------------------------
 Center     Atomic      Atomic             Coordinates (Angstroms)
 Number     Number       Type             X           Y           Z
 ---------------------------------------------------------------------
      1          6           0        3.322828   -1.447421   -0.662965
      2          6           0        2.358196   -0.503971   -0.270260
      3          6           0        2.744524    0.835397   -0.143912
      4          6           0        4.059906    1.226280   -0.417953
      5          6           0        5.009565    0.283946   -0.815196
      6          6           0        4.634066   -1.059502   -0.934785
      7          6           0        0.939280   -0.952127    0.052793
      8          6           0        0.401234   -2.033266   -0.964058
      9          6           0        0.440633   -3.388553   -0.229908
     10          6           0        0.161647   -3.061485    1.243456
     11          6           0        0.926584   -1.759290    1.481696
     12          6           0        0.376568   -0.735264    2.378513
     13          6           0        1.277980    0.257508    2.965594
     14          8           0        0.064841    0.128517    0.200688
     15         26           0       -0.830664    1.683245   -0.181831
     16         17           0        0.065879    3.233251    1.218923
     17          6           0       -1.040247   -0.714619    2.750205
     18         17           0       -2.978199    1.456343    0.458125
     19         17           0       -0.656811    2.419223   -2.291456
     20          1           0        2.030467    1.587364    0.176353
     21          1           0        4.336620    2.276367   -0.318138
     22          1           0        6.034140    0.589409   -1.030079
     23          1           0        5.364284   -1.808246   -1.243484
     24          1           0        3.061050   -2.499989   -0.759334
     25          1           0        1.041074   -2.030251   -1.849802
     26          6           0       -0.983164   -1.678530   -1.478963
     27          1           0       -0.279313   -4.104192   -0.642408
     28          1           0        1.439047   -3.830857   -0.339370
     29          1           0       -0.912951   -2.931203    1.393486
     30          1           0        0.507184   -3.848300    1.924044
     31          1           0        1.971167   -1.953522    1.744837
     32          1           0       -1.684021   -1.022382    1.920111
     33          1           0       -1.147852   -1.487790    3.536729
     34          1           0       -1.352417    0.247570    3.165006
     35          1           0        1.250525    0.095814    4.059760
     36          1           0        2.307880    0.180622    2.609978
     37          1           0        0.870247    1.268564    2.808636
     38          8           0       -1.957277   -1.972937   -0.607076
     39          8           0       -1.185126   -1.214439   -2.584404
     40          6           0       -3.325016   -1.740774   -1.051770
     41          6           0       -4.237005   -2.081029    0.105498
     42          1           0       -3.413428   -0.691334   -1.351410
     43          1           0       -3.506564   -2.378058   -1.927021
     44          1           0       -5.281572   -1.945132   -0.207209
     45          1           0       -4.102503   -3.124669    0.421660
     46          1           0       -4.045538   -1.416973    0.958605
 ---------------------------------------------------------------------

 SCF Done:  E(UB3LYP) =  -3531.55558918     A.U. after    2 cycles

 Isotropic polarizability for W=    0.000000      402.83 Bohr**3.
 End of Minotr F.D. properties file   721 does not exist.

 ******    1 imaginary frequencies (negative Signs) ******

                      1                      2                      3
                      A                      A                      A
 Frequencies --   -180.7519                25.8134                34.1987
 Red. masses --      3.5844                 6.2138                 6.7915
 Frc consts  --      0.0690                 0.0024                 0.0047
 IR Inten    --     31.4060                 3.7188                 0.8410

                      4                      5                      6
                      A                      A                      A
 Frequencies --     55.1936                57.5261                64.5564
 Red. masses --      6.9642                 5.0546                 5.5805
 Frc consts  --      0.0125                 0.0099                 0.0137
 IR Inten    --      2.8199                 3.2748                 1.0990

                      7                      8                      9
                      A                      A                      A
 Frequencies --     68.5201                74.3343                83.8031
 Red. masses --      7.3339                 6.3235                 5.7742
 Frc consts  --      0.0203                 0.0206                 0.0239
 IR Inten    --      2.2535                 2.4876                 1.8229

                     10                     11                     12
                      A                      A                      A
 Frequencies --     90.0637               103.7853               109.6309
 Red. masses --      2.2529                 6.0768                 7.6055
 Frc consts  --      0.0108                 0.0386                 0.0539
 IR Inten    --     28.6977                 3.5342                 9.6811

                     13                     14                     15
                      A                      A                      A
 Frequencies --    113.5463               118.5169               123.7249
 Red. masses --      9.1237                 2.6177                 3.2012
 Frc consts  --      0.0693                 0.0217                 0.0289
 IR Inten    --      1.4946                 2.1346                 5.7696

                     16                     17                     18
                      A                      A                      A
 Frequencies --    125.9327               133.5558               138.6402
 Red. masses --      3.5299                 6.4982                 2.5520
 Frc consts  --      0.0330                 0.0683                 0.0289
 IR Inten    --      4.8693                 0.8375                 7.5496

                     19                     20                     21
                      A                      A                      A
 Frequencies --    165.0626               185.2430               196.6817
 Red. masses --      2.1017                 2.2549                 2.9545
 Frc consts  --      0.0337                 0.0456                 0.0673
 IR Inten    --      7.5840                 7.5832                 1.9437

                     22                     23                     24
                      A                      A                      A
 Frequencies --    211.3176               233.5293               253.4781
 Red. masses --      2.2300                 3.1251                 6.6939
 Frc consts  --      0.0587                 0.1004                 0.2534
 IR Inten    --     36.6003                 0.9877                19.9008

                     25                     26                     27
                      A                      A                      A
 Frequencies --    266.1955               275.9649               291.3783
 Red. masses --      1.6653                 3.4486                 3.7169
 Frc consts  --      0.0695                 0.1547                 0.1859
 IR Inten    --      5.5834                 9.3425                10.7618

                     28                     29                     30
                      A                      A                      A
 Frequencies --    311.0925               313.6633               322.3474
 Red. masses --      2.7660                 3.8843                16.2080
 Frc consts  --      0.1577                 0.2252                 0.9923
 IR Inten    --      5.3074                 3.0830                97.2702

                     31                     32                     33
                      A                      A                      A
 Frequencies --    344.0430               360.0961               367.9837
 Red. masses --     17.5390                15.1226                 5.8111
 Frc consts  --      1.2232                 1.1553                 0.4636
 IR Inten    --    161.3508               103.3179                87.2801

                     34                     35                     36
                      A                      A                      A
 Frequencies --    379.9860               414.8013               422.0769
 Red. masses --      3.4060                 3.2944                 3.0453
 Frc consts  --      0.2898                 0.3340                 0.3196
 IR Inten    --     25.3022                 3.8963                 0.1536

                     37                     38                     39
                      A                      A                      A
 Frequencies --    435.2274               480.0773               509.5338
 Red. masses --      4.3916                 3.0260                 3.1862
 Frc consts  --      0.4901                 0.4109                 0.4874
 IR Inten    --      5.1852                 3.2757                14.5000

                     40                     41                     42
                      A                      A                      A
 Frequencies --    526.7473               570.7466               628.0944
 Red. masses --      2.6892                 3.6062                 4.2882
 Frc consts  --      0.4396                 0.6921                 0.9967
 IR Inten    --     10.6203                15.3361                 4.1319

                     43                     44                     45
                      A                      A                      A
 Frequencies --    633.6890               673.0614               697.9398
 Red. masses --      3.8639                 3.6677                 5.0102
 Frc consts  --      0.9142                 0.9789                 1.4379
 IR Inten    --     12.9453                48.6807                99.1718

                     46                     47                     48
                      A                      A                      A
 Frequencies --    706.8869               717.3227               752.8847
 Red. masses --      4.5527                 1.5984                 2.7891
 Frc consts  --      1.3404                 0.4846                 0.9315
 IR Inten    --     17.8013                77.9195                63.6301

                     49                     50                     51
                      A                      A                      A
 Frequencies --    800.9001               803.9430               812.2824
 Red. masses --      1.7627                 1.3871                 1.6857
 Frc consts  --      0.6662                 0.5282                 0.6553
 IR Inten    --     16.0680                 4.4031                13.5190

                     52                     53                     54
                      A                      A                      A
 Frequencies --    837.6224               855.9329               864.0737
 Red. masses --      2.4458                 1.2842                 2.6729
 Frc consts  --      1.0110                 0.5543                 1.1758
 IR Inten    --      7.5894                 1.1883                33.6515

                     55                     56                     57
                      A                      A                      A
 Frequencies --    866.8686               908.6996               924.3015
 Red. masses --      2.4927                 5.3797                 2.8073
 Frc consts  --      1.1036                 2.6173                 1.4131
 IR Inten    --      7.0792                49.1405                35.0659

                     58                     59                     60
                      A                      A                      A
 Frequencies --    944.7554               956.1950               973.5738
 Red. masses --      1.5912                 2.0782                 2.3991
 Frc consts  --      0.8368                 1.1195                 1.3398
 IR Inten    --      3.0386                11.4550                47.9871

                     61                     62                     63
                      A                      A                      A
 Frequencies --    994.1190               999.2484              1002.2412
 Red. masses --      1.4238                 2.5732                 1.4121
 Frc consts  --      0.8290                 1.5138                 0.8357
 IR Inten    --      3.0775                32.0334                 8.3838

                     64                     65                     66
                      A                      A                      A
 Frequencies --   1008.2044              1012.9650              1027.9417
 Red. masses --      3.2748                 2.1566                 1.4041
 Frc consts  --      1.9613                 1.3038                 0.8742
 IR Inten    --      4.9841                80.6754                 4.3150

                     67                     68                     69
                      A                      A                      A
 Frequencies --   1038.1595              1044.8858              1053.5380
 Red. masses --      2.3035                 2.1793                 2.2658
 Frc consts  --      1.4627                 1.4019                 1.4817
 IR Inten    --     36.1313                55.5135                14.8313

                     70                     71                     72
                      A                      A                      A
 Frequencies --   1067.5965              1091.2945              1107.2730
 Red. masses --      2.3155                 2.6089                 1.8659
 Frc consts  --      1.5549                 1.8306                 1.3479
 IR Inten    --    110.1741               154.1924                76.5447

                     73                     74                     75
                      A                      A                      A
 Frequencies --   1129.3814              1132.5347              1160.1792
 Red. masses --      2.1217                 2.1863                 1.6411
 Frc consts  --      1.5945                 1.6522                 1.3014
 IR Inten    --     91.2110                45.7930                30.8055

                     76                     77                     78
                      A                      A                      A
 Frequencies --   1167.8908              1170.3381              1175.1959
 Red. masses --      1.5504                 1.0977                 1.5028
 Frc consts  --      1.2460                 0.8858                 1.2228
 IR Inten    --      5.8712                10.7565               135.3591

                     79                     80                     81
                      A                      A                      A
 Frequencies --   1204.5582              1206.5018              1231.1548
 Red. masses --      1.4573                 1.2211                 2.4090
 Frc consts  --      1.2458                 1.0473                 2.1514
 IR Inten    --     12.9929                 1.8645                49.4312

                     82                     83                     84
                      A                      A                      A
 Frequencies --   1263.9744              1275.5991              1286.3525
 Red. masses --      1.7082                 1.7701                 1.1213
 Frc consts  --      1.6080                 1.6970                 1.0932
 IR Inten    --    180.9737                32.3751                18.5114

                     85                     86                     87
                      A                      A                      A
 Frequencies --   1293.6495              1315.1113              1318.7482
 Red. masses --      2.1901                 1.2446                 1.3752
 Frc consts  --      2.1595                 1.2683                 1.4091
 IR Inten    --    454.5186                67.0338                20.3074

                     88                     89                     90
                      A                      A                      A
 Frequencies --   1331.7401              1339.0162              1340.8598
 Red. masses --      1.5115                 1.7006                 1.2270
 Frc consts  --      1.5794                 1.7964                 1.2998
 IR Inten    --      8.1286                 4.0393                19.8162

                     91                     92                     93
                      A                      A                      A
 Frequencies --   1349.6587              1360.9495              1378.0217
 Red. masses --      1.3862                 2.6973                 1.6511
 Frc consts  --      1.4877                 2.9435                 1.8473
 IR Inten    --     44.6910                 0.4630                56.2978

                     94                     95                     96
                      A                      A                      A
 Frequencies --   1379.4233              1403.4621              1412.1422
 Red. masses --      1.4094                 1.1954                 1.4724
 Frc consts  --      1.5801                 1.3873                 1.7299
 IR Inten    --     82.0777                57.5602                 3.8196

                     97                     98                     99
                      A                      A                      A
 Frequencies --   1436.3750              1441.7915              1469.3231
 Red. masses --      1.1705                 1.3155                 2.2200
 Frc consts  --      1.4228                 1.6112                 2.8238
 IR Inten    --      7.1194                48.5955                22.9448

                    100                    101                    102
                      A                      A                      A
 Frequencies --   1470.2859              1476.6459              1479.1881
 Red. masses --      1.0553                 1.0517                 1.1257
 Frc consts  --      1.3441                 1.3511                 1.4512
 IR Inten    --      1.4317                 5.0154                16.2552

                    103                    104                    105
                      A                      A                      A
 Frequencies --   1490.8588              1493.2441              1497.3845
 Red. masses --      1.2911                 1.2419                 1.1001
 Frc consts  --      1.6907                 1.6316                 1.4533
 IR Inten    --     21.3058                18.3906                17.2113

                    106                    107                    108
                      A                      A                      A
 Frequencies --   1503.1532              1522.9000              1626.2135
 Red. masses --      1.1725                 2.1526                 5.7699
 Frc consts  --      1.5609                 2.9415                 8.9903
 IR Inten    --      9.6147                11.9424                 0.0571

                    109                    110                    111
                      A                      A                      A
 Frequencies --   1644.0741              1748.5967              2989.9321
 Red. masses --      5.8139                11.2436                 1.0522
 Frc consts  --      9.2589                20.2552                 5.5419
 IR Inten    --      1.1945               437.5453                48.1419

                    112                    113                    114
                      A                      A                      A
 Frequencies --   3002.3753              3040.2991              3055.8004
 Red. masses --      1.0462                 1.0352                 1.0906
 Frc consts  --      5.5563                 5.6378                 6.0003
 IR Inten    --     34.5344                23.3114                51.0280

                    115                    116                    117
                      A                      A                      A
 Frequencies --   3067.8920              3070.7513              3086.1951
 Red. masses --      1.0636                 1.0620                 1.0659
 Frc consts  --      5.8983                 5.9002                 5.9813
 IR Inten    --     37.9789                32.2765                39.5904

                    118                    119                    120
                      A                      A                      A
 Frequencies --   3103.6121              3109.5725              3114.0860
 Red. masses --      1.0852                 1.0729                 1.1026
 Frc consts  --      6.1585                 6.1122                 6.2996
 IR Inten    --      8.5312                11.9118                16.7818

                    121                    122                    123
                      A                      A                      A
 Frequencies --   3120.6739              3122.4739              3130.9034
 Red. masses --      1.1023                 1.1005                 1.0864
 Frc consts  --      6.3247                 6.3220                 6.2744
 IR Inten    --     23.6845                30.4759                 9.2578

                    124                    125                    126
                      A                      A                      A
 Frequencies --   3143.1890              3154.0102              3174.1373
 Red. masses --      1.1062                 1.1001                 1.0854
 Frc consts  --      6.4390                 6.4475                 6.4428
 IR Inten    --     33.9477                18.5314                 0.0604

                    127                    128                    129
                      A                      A                      A
 Frequencies --   3174.8513              3179.1472              3183.4674
 Red. masses --      1.1010                 1.1069                 1.0899
 Frc consts  --      6.5384                 6.5917                 6.5081
 IR Inten    --      7.2987                 5.8567                11.8315

                    130                    131                    132
                      A                      A                      A
 Frequencies --   3194.9866              3203.1399              3247.0684
 Red. masses --      1.0942                 1.0959                 1.0895
 Frc consts  --      6.5808                 6.6249                 6.7682
 IR Inten    --     29.8413                20.1015                 8.6533

 - Thermochemistry -
 -------------------
 Temperature   298.150 Kelvin.  Pressure   1.00000 Atm.
 Atom     1 has atomic number  6 and mass  12.00000

 Molecular mass:   434.99839 amu.
 Principal axes and moments of inertia in atomic units:
                           1         2         3
     Eigenvalues --  8455.13030********************
           X            0.99714   0.07540  -0.00539
           Y           -0.07542   0.99715  -0.00352
           Z            0.00511   0.00392   0.99998
 This molecule is an asymmetric top.
 Rotational symmetry number  1.
 Warning -- assumption of classical behavior for rotation
           may cause significant error
 Rotational temperatures (Kelvin)      0.01024     0.00823     0.00662
 Rotational constants (GHZ):           0.21345     0.17142     0.13791
    1 imaginary frequencies ignored.
 Zero-point vibrational energy     943615.3 (Joules/Mol)
                                  225.52946 (Kcal/Mol)
 Warning -- explicit consideration of  40 degrees of freedom as
           vibrations may cause significant error
 Vibrational temperatures:     37.14    49.20    79.41    82.77    92.88
          (Kelvin)             98.59   106.95   120.57   129.58   149.32
                              157.73   163.37   170.52   178.01   181.19
                              192.16   199.47   237.49   266.52   282.98
                              304.04   336.00   364.70   383.00   397.05
                              419.23   447.59   451.29   463.79   495.00
                              518.10   529.45   546.72   596.81   607.27
                              626.20   690.72   733.11   757.87   821.18
                              903.69   911.74   968.39  1004.18  1017.05
                             1032.07  1083.23  1152.32  1156.69  1168.69
                             1205.15  1231.50  1243.21  1247.23  1307.42
                             1329.86  1359.29  1375.75  1400.76  1430.32
                             1437.70  1442.00  1450.58  1457.43  1478.98
                             1493.68  1503.36  1515.81  1536.03  1570.13
                             1593.12  1624.93  1629.46  1669.24  1680.33
                             1683.86  1690.84  1733.09  1735.89  1771.36
                             1818.58  1835.30  1850.77  1861.27  1892.15
                             1897.38  1916.08  1926.55  1929.20  1941.86
                             1958.10  1982.67  1984.68  2019.27  2031.76
                             2066.62  2074.42  2114.03  2115.41  2124.56
                             2128.22  2145.01  2148.45  2154.40  2162.70
                             2191.11  2339.76  2365.46  2515.84  4301.85
                             4319.75  4374.31  4396.62  4414.01  4418.13
                             4440.35  4465.41  4473.98  4480.48  4489.95
                             4492.54  4504.67  4522.35  4537.92  4566.88
                             4567.90  4574.08  4580.30  4596.87  4608.60
                             4671.81

 Zero-point correction=                           0.359404 (Hartree/Particle)
 Thermal correction to Energy=                    0.386363
 Thermal correction to Enthalpy=                  0.387307
 Thermal correction to Gibbs Free Energy=         0.299206
 Sum of electronic and zero-point Energies=          -3531.196185
 Sum of electronic and thermal Energies=             -3531.169226
 Sum of electronic and thermal Enthalpies=           -3531.168282
 Sum of electronic and thermal Free Energies=        -3531.256383

                     E (Thermal)             CV                S
                      KCal/Mol        Cal/Mol-Kelvin    Cal/Mol-Kelvin
 Total                  242.446             96.919            185.425
 Electronic               0.000              0.000              3.561
 Translational            0.889              2.981             44.100
 Rotational               0.889              2.981             35.409
 Vibrational            240.669             90.957            102.355
 Vibration     1          0.593              1.985              6.128
 Vibration     2          0.594              1.983              5.570
 Vibration     3          0.596              1.975              4.622
 Vibration     4          0.596              1.974              4.540
 Vibration     5          0.597              1.971              4.313
 Vibration     6          0.598              1.969              4.195
 Vibration     7          0.599              1.966              4.035
 Vibration     8          0.601              1.960              3.800
 Vibration     9          0.602              1.956              3.659
 Vibration    10          0.605              1.946              3.382
 Vibration    11          0.606              1.941              3.275
 Vibration    12          0.607              1.938              3.207
 Vibration    13          0.609              1.934              3.124
 Vibration    14          0.610              1.929              3.041
 Vibration    15          0.611              1.927              3.007
 Vibration    16          0.613              1.920              2.894
 Vibration    17          0.614              1.915              2.823
 Vibration    18          0.623              1.885              2.491
 Vibration    19          0.631              1.860              2.275
 Vibration    20          0.636              1.845              2.164
 Vibration    21          0.643              1.824              2.032
 Vibration    22          0.654              1.790              1.852
 Vibration    23          0.665              1.757              1.706
 Vibration    24          0.672              1.735              1.621
 Vibration    25          0.678              1.718              1.559
 Vibration    26          0.687              1.690              1.466
 Vibration    27          0.700              1.653              1.357
 Vibration    28          0.702              1.648              1.343
 Vibration    29          0.707              1.631              1.298
 Vibration    30          0.723              1.587              1.193
 Vibration    31          0.735              1.554              1.122
 Vibration    32          0.741              1.538              1.088
 Vibration    33          0.750              1.513              1.039
 Vibration    34          0.778              1.438              0.910
 Vibration    35          0.784              1.422              0.885
 Vibration    36          0.796              1.393              0.842
 Vibration    37          0.836              1.294              0.710
 Vibration    38          0.865              1.229              0.635
 Vibration    39          0.882              1.191              0.595
 Vibration    40          0.927              1.095              0.503

 Optimization completed.
    -- Stationary point found.
 Normal termination of Gaussian 16 at Wed Jul 14 09:51:30 2021.
