 Gaussian 16, Revision A.03,
 Gaussian 16:  ES64L-G16RevA.03 25-Dec-2016

 ----------------------------------------------------------------------
 #p opt=(calcfc,ts,noeigentest,maxstep=5) freq=noraman b3lyp scrf=(solv
 ent=dichloroethane,pcm) pop=none empiricaldispersion=gd3bj jul-cc-pvdz
 ----------------------------------------------------------------------

 -----
 title
 -----
 Symbolic Z-matrix:
 Charge =  0 Multiplicity = 6

 SCF Done:  E(UB3LYP) =  -3531.56090811     A.U. after   24 cycles
 Optimization completed.
    -- Stationary point found.
 Normal termination of Gaussian 16 at Wed Jul 14 03:44:45 2021.

 ----------------------------------------------------------------------
 #P Geom=AllCheck Guess=TCheck SCRF=Check GenChk UB3LYP/Jul-CC-pVDZ Fre
 q
 ----------------------------------------------------------------------

 Structure from the checkpoint file:  "/scratch/kwaneu.3017248.bmbhpcps002/Gau-64843.chk"
 -----
 title
 -----
 Charge =  0 Multiplicity = 6

                         Standard orientation:
 ---------------------------------------------------------------------
 Center     Atomic      Atomic             Coordinates (Angstroms)
 Number     Number       Type             X           Y           Z
 ---------------------------------------------------------------------
      1          6           0        2.827137    1.440571   -0.499456
      2          6           0        1.583661    0.827809   -0.717919
      3          6           0        1.437707   -0.041225   -1.803852
      4          6           0        2.517542   -0.300250   -2.653345
      5          6           0        3.755101    0.307550   -2.428183
      6          6           0        3.905747    1.182155   -1.345985
      7          6           0        0.441887    1.075183    0.253349
      8          6           0        0.754114    0.592481    1.722600
      9          6           0        0.908943    1.862298    2.563998
     10          6           0       -0.119830    2.811968    1.942178
     11          6           0        0.098132    2.608607    0.439940
     12          6           0       -1.042303    2.784825   -0.504341
     13          6           0       -0.749141    2.856117   -1.942419
     14          8           0       -0.784941    0.549925   -0.242164
     15         26           0       -1.916953   -0.913735   -0.145640
     16         17           0       -1.357858   -2.531166   -1.602905
     17          6           0       -2.409398    3.068172   -0.073644
     18         17           0       -3.924211   -0.047211   -0.744725
     19         17           0       -2.085214   -1.745448    1.930525
     20          1           0        0.484040   -0.530655   -1.977495
     21          1           0        2.387739   -0.984668   -3.492408
     22          1           0        4.597533    0.104358   -3.090254
     23          1           0        4.865990    1.663632   -1.158844
     24          1           0        2.967137    2.117921    0.342671
     25          1           0       -0.140575    0.047130    2.045348
     26          6           0        1.911392   -0.375142    1.805369
     27          1           0        0.727505    1.674223    3.628246
     28          1           0        1.927183    2.261602    2.466732
     29          1           0       -1.126767    2.492026    2.238383
     30          1           0        0.007418    3.858035    2.243000
     31          1           0        0.933723    3.224909    0.081258
     32          1           0       -2.979270    2.125118   -0.216525
     33          1           0       -2.497873    3.375793    0.969719
     34          1           0       -2.881509    3.790521   -0.753415
     35          1           0       -0.582988    3.936741   -2.125964
     36          1           0        0.165601    2.330058   -2.227399
     37          1           0       -1.608620    2.556254   -2.552015
     38          8           0        1.634051   -1.495174    1.126683
     39          8           0        2.957459   -0.172904    2.393484
     40          6           0        2.712780   -2.455848    0.963349
     41          6           0        2.220484   -3.523517    0.010985
     42          1           0        3.586124   -1.919526    0.570506
     43          1           0        2.967250   -2.861250    1.951384
     44          1           0        3.011523   -4.272382   -0.133788
     45          1           0        1.330736   -4.026998    0.411659
     46          1           0        1.966406   -3.086016   -0.963156
 ---------------------------------------------------------------------

 SCF Done:  E(UB3LYP) =  -3531.56090811     A.U. after    2 cycles

 Isotropic polarizability for W=    0.000000      400.96 Bohr**3.
 End of Minotr F.D. properties file   721 does not exist.

 ******    1 imaginary frequencies (negative Signs) ******

                      1                      2                      3
                      A                      A                      A
 Frequencies --   -171.2706                20.6031                38.5063
 Red. masses --      4.8417                 3.1883                 5.0811
 Frc consts  --      0.0837                 0.0008                 0.0044
 IR Inten    --    167.9633                 3.0716                 1.3922

                      4                      5                      6
                      A                      A                      A
 Frequencies --     49.5600                53.3370                63.6435
 Red. masses --      4.7171                 6.5067                 3.4595
 Frc consts  --      0.0068                 0.0109                 0.0083
 IR Inten    --      0.6594                 1.1305                 0.4245

                      7                      8                      9
                      A                      A                      A
 Frequencies --     64.4587                75.2245                83.5234
 Red. masses --      4.6920                 3.5554                 3.4616
 Frc consts  --      0.0115                 0.0119                 0.0142
 IR Inten    --      2.6842                 2.0006                 1.0341

                     10                     11                     12
                      A                      A                      A
 Frequencies --     92.3085                94.7988               107.6011
 Red. masses --      5.5131                 2.6337                19.5660
 Frc consts  --      0.0277                 0.0139                 0.1335
 IR Inten    --      2.3059                14.0258                 0.5996

                     13                     14                     15
                      A                      A                      A
 Frequencies --    110.2115               124.7177               129.4131
 Red. masses --     16.4011                 9.3692                11.4832
 Frc consts  --      0.1174                 0.0859                 0.1133
 IR Inten    --      2.3371                 5.5401                 7.3233

                     16                     17                     18
                      A                      A                      A
 Frequencies --    138.9795               142.4923               152.8943
 Red. masses --      4.3810                 5.1423                 2.9321
 Frc consts  --      0.0499                 0.0615                 0.0404
 IR Inten    --      1.0435                11.1479                 0.6932

                     19                     20                     21
                      A                      A                      A
 Frequencies --    176.1553               198.2492               206.1629
 Red. masses --      2.3976                 2.4405                 3.0443
 Frc consts  --      0.0438                 0.0565                 0.0762
 IR Inten    --     18.0304                14.4003                19.0623

                     22                     23                     24
                      A                      A                      A
 Frequencies --    232.4549               249.3120               255.0326
 Red. masses --      2.0298                 1.2780                 3.8927
 Frc consts  --      0.0646                 0.0468                 0.1492
 IR Inten    --      3.2671                 3.8388                24.2098

                     25                     26                     27
                      A                      A                      A
 Frequencies --    260.0271               278.1388               285.4133
 Red. masses --      1.8130                 4.1873                 3.7778
 Frc consts  --      0.0722                 0.1909                 0.1813
 IR Inten    --      5.6512                14.6701                15.4785

                     28                     29                     30
                      A                      A                      A
 Frequencies --    304.1315               323.2020               342.3323
 Red. masses --      3.5253                10.4967                 5.7401
 Frc consts  --      0.1921                 0.6460                 0.3963
 IR Inten    --      3.1956                81.1167                30.7446

                     31                     32                     33
                      A                      A                      A
 Frequencies --    347.9241               353.8297               366.9941
 Red. masses --     28.5078                27.9750                 3.3004
 Frc consts  --      2.0332                 2.0635                 0.2619
 IR Inten    --    176.8058               160.3836                 4.3112

                     34                     35                     36
                      A                      A                      A
 Frequencies --    378.5053               411.5254               414.1909
 Red. masses --      4.8628                 2.9689                 3.4035
 Frc consts  --      0.4105                 0.2962                 0.3440
 IR Inten    --     17.2418                 8.1100                31.6573

                     37                     38                     39
                      A                      A                      A
 Frequencies --    440.7063               475.9210               497.8035
 Red. masses --      4.1204                 3.7362                 2.8436
 Frc consts  --      0.4715                 0.4986                 0.4152
 IR Inten    --     13.9493                 2.7687                 9.4810

                     40                     41                     42
                      A                      A                      A
 Frequencies --    538.6851               560.9760               591.4507
 Red. masses --      2.8742                 2.9981                 3.9056
 Frc consts  --      0.4914                 0.5559                 0.8050
 IR Inten    --     10.4903                13.1540                32.7731

                     43                     44                     45
                      A                      A                      A
 Frequencies --    629.8831               649.6543               706.8014
 Red. masses --      6.3181                 3.9028                 1.6799
 Frc consts  --      1.4769                 0.9705                 0.4945
 IR Inten    --      0.1981                13.8938                65.3870

                     46                     47                     48
                      A                      A                      A
 Frequencies --    714.3713               745.0261               773.4377
 Red. masses --      3.3557                 3.0022                 2.7763
 Frc consts  --      1.0090                 0.9818                 0.9785
 IR Inten    --     89.3210                37.7525                25.5680

                     49                     50                     51
                      A                      A                      A
 Frequencies --    790.7947               806.8625               810.6703
 Red. masses --      4.2748                 1.7763                 1.1688
 Frc consts  --      1.5750                 0.6814                 0.4525
 IR Inten    --     61.4120                11.3639                 4.8250

                     52                     53                     54
                      A                      A                      A
 Frequencies --    847.7121               858.3098               869.9900
 Red. masses --      1.2643                 1.8060                 2.4239
 Frc consts  --      0.5353                 0.7839                 1.0809
 IR Inten    --      2.3299                20.8863                14.5535

                     55                     56                     57
                      A                      A                      A
 Frequencies --    888.1218               917.7622               932.1528
 Red. masses --      2.0487                 1.9224                 1.7327
 Frc consts  --      0.9521                 0.9540                 0.8871
 IR Inten    --     46.2004                 1.4441                 7.6164

                     58                     59                     60
                      A                      A                      A
 Frequencies --    956.7205               965.8615               973.7033
 Red. masses --      1.9836                 3.6157                 2.1745
 Frc consts  --      1.0697                 1.9874                 1.2147
 IR Inten    --     30.8343                31.7000                12.0641

                     61                     62                     63
                      A                      A                      A
 Frequencies --    986.0004               999.6432              1001.8104
 Red. masses --      1.3844                 2.0529                 1.3637
 Frc consts  --      0.7930                 1.2087                 0.8064
 IR Inten    --      0.4318                 5.4062                 3.7015

                     64                     65                     66
                      A                      A                      A
 Frequencies --   1004.0782              1012.3699              1027.6162
 Red. masses --      1.5052                 5.0432                 2.4740
 Frc consts  --      0.8941                 3.0453                 1.5392
 IR Inten    --     24.6596                 0.9523                56.0120

                     67                     68                     69
                      A                      A                      A
 Frequencies --   1045.4759              1049.8790              1052.1808
 Red. masses --      3.0697                 2.2286                 2.1466
 Frc consts  --      1.9768                 1.4473                 1.4002
 IR Inten    --    171.5913                30.7190                27.2294

                     70                     71                     72
                      A                      A                      A
 Frequencies --   1070.7703              1087.3663              1112.9764
 Red. masses --      3.8831                 2.2653                 1.7605
 Frc consts  --      2.6232                 1.5781                 1.2848
 IR Inten    --     68.1042               131.3429                31.3507

                     73                     74                     75
                      A                      A                      A
 Frequencies --   1133.3511              1134.1281              1165.4349
 Red. masses --      2.2019                 3.0003                 1.8023
 Frc consts  --      1.6664                 2.2737                 1.4423
 IR Inten    --     10.6049                17.8024                38.6789

                     76                     77                     78
                      A                      A                      A
 Frequencies --   1167.9306              1168.9259              1175.8840
 Red. masses --      1.5497                 1.0898                 1.3428
 Frc consts  --      1.2454                 0.8773                 1.0939
 IR Inten    --      5.7172                 6.3296                63.4418

                     79                     80                     81
                      A                      A                      A
 Frequencies --   1199.7993              1210.0168              1240.2168
 Red. masses --      1.1367                 2.1893                 2.5545
 Frc consts  --      0.9641                 1.8886                 2.3150
 IR Inten    --      6.8921               128.6578               249.0553

                     82                     83                     84
                      A                      A                      A
 Frequencies --   1243.9435              1265.5104              1283.4832
 Red. masses --      1.5672                 1.6668                 1.1039
 Frc consts  --      1.4288                 1.5728                 1.0714
 IR Inten    --     86.2467                68.2461                 1.7681

                     85                     86                     87
                      A                      A                      A
 Frequencies --   1303.9904              1311.5394              1314.6163
 Red. masses --      1.5879                 1.5579                 1.7064
 Frc consts  --      1.5908                 1.5789                 1.7375
 IR Inten    --    150.3760               161.5293                 6.6833

                     88                     89                     90
                      A                      A                      A
 Frequencies --   1321.6624              1334.7207              1337.8914
 Red. masses --      1.2807                 1.4910                 1.4561
 Frc consts  --      1.3181                 1.5650                 1.5356
 IR Inten    --     22.7576                24.6832                 2.1163

                     91                     92                     93
                      A                      A                      A
 Frequencies --   1359.3860              1362.0230              1366.5051
 Red. masses --      3.0423                 1.3764                 1.3764
 Frc consts  --      3.3123                 1.5044                 1.5143
 IR Inten    --      2.7341                69.4716                20.9955

                     94                     95                     96
                      A                      A                      A
 Frequencies --   1390.3693              1401.2349              1413.8127
 Red. masses --      1.5870                 1.4174                 1.5530
 Frc consts  --      1.8075                 1.6397                 1.8290
 IR Inten    --     83.2604                34.1997                10.2752

                     97                     98                     99
                      A                      A                      A
 Frequencies --   1415.7915              1438.2848              1466.6947
 Red. masses --      1.0760                 1.3361                 1.0423
 Frc consts  --      1.2707                 1.6285                 1.3211
 IR Inten    --      0.3239                10.7063                 6.6489

                    100                    101                    102
                      A                      A                      A
 Frequencies --   1470.5288              1475.1946              1480.4106
 Red. masses --      2.2828                 1.0535                 1.0925
 Frc consts  --      2.9084                 1.3507                 1.4107
 IR Inten    --     19.6185                 4.3749                16.7231

                    103                    104                    105
                      A                      A                      A
 Frequencies --   1490.8194              1495.1058              1497.1080
 Red. masses --      1.1930                 1.2364                 1.1745
 Frc consts  --      1.5622                 1.6284                 1.5510
 IR Inten    --     13.3786                20.3032                 8.2522

                    106                    107                    108
                      A                      A                      A
 Frequencies --   1502.4836              1522.0921              1626.6051
 Red. masses --      1.0922                 2.2272                 5.9048
 Frc consts  --      1.4527                 3.0401                 9.2049
 IR Inten    --     12.9388                11.5768                 0.1554

                    109                    110                    111
                      A                      A                      A
 Frequencies --   1647.0623              1745.6719              2917.8282
 Red. masses --      5.8343                12.0833                 1.0618
 Frc consts  --      9.3253                21.6950                 5.3260
 IR Inten    --      1.6017               496.5322               345.0172

                    112                    113                    114
                      A                      A                      A
 Frequencies --   2989.5875              3041.6811              3060.9373
 Red. masses --      1.0559                 1.0351                 1.0576
 Frc consts  --      5.5603                 5.6421                 5.8382
 IR Inten    --     21.1887                19.4664                30.5860

                    115                    116                    117
                      A                      A                      A
 Frequencies --   3063.4625              3066.6093              3068.8833
 Red. masses --      1.0675                 1.0640                 1.0769
 Frc consts  --      5.9026                 5.8952                 5.9758
 IR Inten    --     19.7240                33.9301                16.6862

                    118                    119                    120
                      A                      A                      A
 Frequencies --   3083.1115              3085.7409              3104.8767
 Red. masses --      1.0701                 1.0819                 1.0732
 Frc consts  --      5.9932                 6.0696                 6.0957
 IR Inten    --      6.1583                 9.8441                12.8263

                    121                    122                    123
                      A                      A                      A
 Frequencies --   3107.8103              3119.3475              3120.1782
 Red. masses --      1.1071                 1.1024                 1.1019
 Frc consts  --      6.2999                 6.3202                 6.3207
 IR Inten    --      5.6867                32.3101                35.3790

                    124                    125                    126
                      A                      A                      A
 Frequencies --   3127.6212              3132.9131              3172.2767
 Red. masses --      1.1057                 1.1058                 1.0852
 Frc consts  --      6.3728                 6.3947                 6.4345
 IR Inten    --     28.3776                48.4810                 0.6151

                    127                    128                    129
                      A                      A                      A
 Frequencies --   3177.6021              3180.2824              3184.8020
 Red. masses --      1.1072                 1.0889                 1.1011
 Frc consts  --      6.5870                 6.4889                 6.5801
 IR Inten    --      6.5447                 9.8555                 6.4901

                    130                    131                    132
                      A                      A                      A
 Frequencies --   3189.2782              3198.6442              3232.2565
 Red. masses --      1.0934                 1.0984                 1.0918
 Frc consts  --      6.5527                 6.6213                 6.7203
 IR Inten    --     29.7499                20.1551                 9.6268

 - Thermochemistry -
 -------------------
 Temperature   298.150 Kelvin.  Pressure   1.00000 Atm.
 Atom     1 has atomic number  6 and mass  12.00000

 Molecular mass:   434.99839 amu.
 Principal axes and moments of inertia in atomic units:
                           1         2         3
     Eigenvalues --  8262.83780********************
           X            0.99642  -0.08376  -0.01179
           Y            0.08386   0.99645   0.00795
           Z            0.01108  -0.00891   0.99990
 This molecule is an asymmetric top.
 Rotational symmetry number  1.
 Warning -- assumption of classical behavior for rotation
           may cause significant error
 Rotational temperatures (Kelvin)      0.01048     0.00785     0.00682
 Rotational constants (GHZ):           0.21842     0.16360     0.14218
    1 imaginary frequencies ignored.
 Zero-point vibrational energy     942809.0 (Joules/Mol)
                                  225.33676 (Kcal/Mol)
 Warning -- explicit consideration of  41 degrees of freedom as
           vibrations may cause significant error
 Vibrational temperatures:     29.64    55.40    71.31    76.74    91.57
          (Kelvin)             92.74   108.23   120.17   132.81   136.39
                              154.81   158.57   179.44   186.20   199.96
                              205.01   219.98   253.45   285.24   296.62
                              334.45   358.70   366.94   374.12   400.18
                              410.65   437.58   465.02   492.54   500.59
                              509.08   528.02   544.58   592.09   595.93
                              634.08   684.74   716.23   775.05   807.12
                              850.97   906.26   934.71  1016.93  1027.82
                             1071.93  1112.80  1137.78  1160.90  1166.37
                             1219.67  1234.92  1251.72  1277.81  1320.46
                             1341.16  1376.51  1389.66  1400.94  1418.63
                             1438.26  1441.38  1444.64  1456.57  1478.51
                             1504.21  1510.54  1513.85  1540.60  1564.48
                             1601.32  1630.64  1631.76  1676.80  1680.39
                             1681.82  1691.83  1726.24  1740.94  1784.40
                             1789.76  1820.79  1846.65  1876.15  1887.01
                             1891.44  1901.58  1920.37  1924.93  1955.85
                             1959.65  1966.10  2000.43  2016.06  2034.16
                             2037.01  2069.37  2110.25  2115.76  2122.48
                             2129.98  2144.96  2151.12  2154.00  2161.74
                             2189.95  2340.32  2369.76  2511.63  4198.10
                             4301.35  4376.30  4404.01  4407.64  4412.17
                             4415.44  4435.91  4439.69  4467.23  4471.45
                             4488.05  4489.24  4499.95  4507.56  4564.20
                             4571.86  4575.72  4582.22  4588.66  4602.14
                             4650.50

 Zero-point correction=                           0.359097 (Hartree/Particle)
 Thermal correction to Energy=                    0.385918
 Thermal correction to Enthalpy=                  0.386863
 Thermal correction to Gibbs Free Energy=         0.298937
 Sum of electronic and zero-point Energies=          -3531.201811
 Sum of electronic and thermal Energies=             -3531.174990
 Sum of electronic and thermal Enthalpies=           -3531.174046
 Sum of electronic and thermal Free Energies=        -3531.261971

                     E (Thermal)             CV                S
                      KCal/Mol        Cal/Mol-Kelvin    Cal/Mol-Kelvin
 Total                  242.167             96.745            185.054
 Electronic               0.000              0.000              3.561
 Translational            0.889              2.981             44.100
 Rotational               0.889              2.981             35.402
 Vibrational            240.390             90.783            101.991
 Vibration     1          0.593              1.986              6.575
 Vibration     2          0.594              1.981              5.334
 Vibration     3          0.595              1.978              4.835
 Vibration     4          0.596              1.976              4.690
 Vibration     5          0.597              1.972              4.341
 Vibration     6          0.597              1.971              4.316
 Vibration     7          0.599              1.966              4.012
 Vibration     8          0.600              1.961              3.806
 Vibration     9          0.602              1.955              3.611
 Vibration    10          0.603              1.953              3.559
 Vibration    11          0.606              1.943              3.312
 Vibration    12          0.606              1.941              3.265
 Vibration    13          0.610              1.928              3.026
 Vibration    14          0.612              1.924              2.955
 Vibration    15          0.615              1.914              2.818
 Vibration    16          0.616              1.911              2.770
 Vibration    17          0.619              1.899              2.636
 Vibration    18          0.628              1.872              2.369
 Vibration    19          0.637              1.842              2.149
 Vibration    20          0.641              1.831              2.077
 Vibration    21          0.653              1.791              1.860
 Vibration    22          0.662              1.764              1.735
 Vibration    23          0.665              1.754              1.696
 Vibration    24          0.668              1.746              1.662
 Vibration    25          0.679              1.714              1.545
 Vibration    26          0.683              1.701              1.501
 Vibration    27          0.695              1.666              1.394
 Vibration    28          0.708              1.629              1.294
 Vibration    29          0.721              1.591              1.201
 Vibration    30          0.726              1.579              1.176
 Vibration    31          0.730              1.567              1.149
 Vibration    32          0.740              1.540              1.092
 Vibration    33          0.749              1.516              1.045
 Vibration    34          0.775              1.445              0.921
 Vibration    35          0.778              1.439              0.912
 Vibration    36          0.801              1.381              0.824
 Vibration    37          0.833              1.303              0.721
 Vibration    38          0.853              1.255              0.664
 Vibration    39          0.894              1.164              0.568
 Vibration    40          0.917              1.116              0.522
 Vibration    41          0.949              1.050              0.465

 Optimization completed.
    -- Stationary point found.
 Normal termination of Gaussian 16 at Wed Jul 14 10:59:14 2021.
