 Gaussian 16, Revision A.03,
 Gaussian 16:  ES64L-G16RevA.03 25-Dec-2016

 ----------------------------------------------------------------------
 #p opt=(maxstep=5) freq=noraman b3lyp jul-cc-pvdz pop=none empiricaldi
 spersion=gd3bj scrf=(pcm,solvent=dichloroethane)
 ----------------------------------------------------------------------

 -----
 title
 -----
 Symbolic Z-matrix:
 Charge =  0 Multiplicity = 6

 SCF Done:  E(UB3LYP) =  -3531.51566033     A.U. after   22 cycles
 SCF Done:  E(UB3LYP) =  -3531.52229549     A.U. after   14 cycles
 SCF Done:  E(UB3LYP) =  -3531.53323589     A.U. after   15 cycles
 SCF Done:  E(UB3LYP) =  -3531.54500485     A.U. after   15 cycles
 SCF Done:  E(UB3LYP) =  -3531.54909384     A.U. after   15 cycles
 SCF Done:  E(UB3LYP) =  -3531.55236755     A.U. after   15 cycles
 SCF Done:  E(UB3LYP) =  -3531.55260357     A.U. after   16 cycles
 SCF Done:  E(UB3LYP) =  -3531.55107409     A.U. after   20 cycles
 SCF Done:  E(UB3LYP) =  -3531.55359784     A.U. after   16 cycles
 SCF Done:  E(UB3LYP) =  -3531.55408865     A.U. after   15 cycles
 SCF Done:  E(UB3LYP) =  -3531.55532352     A.U. after   13 cycles
 SCF Done:  E(UB3LYP) =  -3531.55533235     A.U. after   13 cycles
 SCF Done:  E(UB3LYP) =  -3531.55534219     A.U. after   14 cycles
 SCF Done:  E(UB3LYP) =  -3531.55534716     A.U. after   13 cycles
 SCF Done:  E(UB3LYP) =  -3531.55535343     A.U. after   12 cycles
 SCF Done:  E(UB3LYP) =  -3531.55536052     A.U. after   12 cycles
 SCF Done:  E(UB3LYP) =  -3531.55536364     A.U. after   13 cycles
 SCF Done:  E(UB3LYP) =  -3531.55536539     A.U. after   12 cycles
 SCF Done:  E(UB3LYP) =  -3531.55536588     A.U. after   11 cycles
 Optimization completed.
    -- Stationary point found.
 Normal termination of Gaussian 16 at Wed Jun 30 05:44:18 2021.

 ----------------------------------------------------------------------
 #P Geom=AllCheck Guess=TCheck SCRF=Check GenChk UB3LYP/Jul-CC-pVDZ Fre
 q
 ----------------------------------------------------------------------

 Structure from the checkpoint file:  "/scratch/kwaneu.3005246.bmbhpcps002/Gau-71054.chk"
 -----
 title
 -----
 Charge =  0 Multiplicity = 6

                         Standard orientation:
 ---------------------------------------------------------------------
 Center     Atomic      Atomic             Coordinates (Angstroms)
 Number     Number       Type             X           Y           Z
 ---------------------------------------------------------------------
      1          6           0        1.723421    0.316366    2.002776
      2          6           0        1.100323   -0.129614    0.830153
      3          6           0        1.326708   -1.449192    0.412533
      4          6           0        2.145275   -2.303006    1.151567
      5          6           0        2.758058   -1.851741    2.324583
      6          6           0        2.543388   -0.537811    2.746331
      7          6           0        0.271815    0.787825   -0.079303
      8          6           0        1.226940    1.517594   -1.101755
      9          6           0        1.805671    2.688283   -0.309189
     10          6           0        0.637854    3.229893    0.539466
     11          6           0       -0.331661    1.982786    0.757608
     12          6           0       -1.627991    2.521449    0.353582
     13          6           0       -2.050930    2.681768   -1.031205
     14          8           0       -0.712658    0.072677   -0.757405
     15         26           0       -2.087844   -1.041496   -0.243495
     16         17           0       -3.984593   -0.273137   -1.222433
     17          6           0       -2.564481    2.888180    1.419747
     18         17           0       -1.701854   -3.154685   -0.890998
     19         17           0       -2.326713   -0.795639    1.985425
     20          1           0        0.860130   -1.809398   -0.500908
     21          1           0        2.303969   -3.325509    0.807617
     22          1           0        3.396250   -2.518678    2.905167
     23          1           0        3.013475   -0.170582    3.659105
     24          1           0        1.589894    1.335101    2.361778
     25          1           0        0.594300    1.873113   -1.921745
     26          6           0        2.219526    0.565014   -1.732684
     27          1           0        2.218457    3.464311   -0.963471
     28          1           0        2.609272    2.335170    0.344482
     29          1           0        0.132523    4.050948    0.014358
     30          1           0        0.941721    3.619475    1.515909
     31          1           0       -0.373222    1.712707    1.813727
     32          1           0       -2.046669    3.283743    2.303514
     33          1           0       -2.975095    1.906921    1.744609
     34          1           0       -3.383808    3.533779    1.093673
     35          1           0       -2.629827    3.603208   -1.170597
     36          1           0       -2.778086    1.847957   -1.179263
     37          1           0       -1.264429    2.565276   -1.775180
     38          8           0        3.382309    0.519220   -1.070137
     39          8           0        1.971191   -0.108589   -2.715947
     40          6           0        4.331479   -0.504181   -1.476774
     41          6           0        5.415569   -0.551830   -0.422311
     42          1           0        4.721018   -0.238782   -2.468528
     43          1           0        3.791031   -1.455136   -1.557054
     44          1           0        6.156437   -1.315066   -0.697890
     45          1           0        4.989027   -0.814111    0.555154
     46          1           0        5.928777    0.416143   -0.340313
 ---------------------------------------------------------------------

 SCF Done:  E(UB3LYP) =  -3531.55536588     A.U. after    2 cycles

 Isotropic polarizability for W=    0.000000      397.37 Bohr**3.
 End of Minotr F.D. properties file   721 does not exist.

                      1                      2                      3
                      A                      A                      A
 Frequencies --     36.8255                44.5295                54.8043
 Red. masses --      4.9788                 5.6791                 4.3902
 Frc consts  --      0.0040                 0.0066                 0.0078
 IR Inten    --      3.2127                 0.2548                 0.7261

                      4                      5                      6
                      A                      A                      A
 Frequencies --     62.3951                66.1497                69.6944
 Red. masses --      4.4738                 3.5763                 6.8338
 Frc consts  --      0.0103                 0.0092                 0.0196
 IR Inten    --      1.4477                 5.8201                 1.2538

                      7                      8                      9
                      A                      A                      A
 Frequencies --     77.8242                87.2055                90.6165
 Red. masses --      3.8918                 6.9807                 5.0303
 Frc consts  --      0.0139                 0.0313                 0.0243
 IR Inten    --      2.0171                 2.2441                 8.1363

                     10                     11                     12
                      A                      A                      A
 Frequencies --     94.8854                99.2577               111.3600
 Red. masses --      7.3202                 4.9735                14.3256
 Frc consts  --      0.0388                 0.0289                 0.1047
 IR Inten    --      1.9509                 3.0604                 5.5580

                     13                     14                     15
                      A                      A                      A
 Frequencies --    115.1134               124.7482               138.1817
 Red. masses --      4.1050                 7.5818                 4.3693
 Frc consts  --      0.0320                 0.0695                 0.0492
 IR Inten    --      2.1721                 7.3688                 8.3811

                     16                     17                     18
                      A                      A                      A
 Frequencies --    146.5252               157.5720               167.1611
 Red. masses --      8.8691                 4.8419                 2.8530
 Frc consts  --      0.1122                 0.0708                 0.0470
 IR Inten    --      6.1538                 5.4489                 7.4240

                     19                     20                     21
                      A                      A                      A
 Frequencies --    184.7014               188.3155               202.0335
 Red. masses --      1.2246                 3.1989                 1.5851
 Frc consts  --      0.0246                 0.0668                 0.0381
 IR Inten    --      7.2759                 5.1469                24.5056

                     22                     23                     24
                      A                      A                      A
 Frequencies --    225.5999               239.9286               253.5152
 Red. masses --      1.7450                 1.9995                 4.2711
 Frc consts  --      0.0523                 0.0678                 0.1617
 IR Inten    --      1.3365                 0.0541                 9.2071

                     25                     26                     27
                      A                      A                      A
 Frequencies --    268.7814               281.0430               297.5920
 Red. masses --      1.7994                 3.5748                 4.9265
 Frc consts  --      0.0766                 0.1664                 0.2571
 IR Inten    --      2.5567                 7.5404                 2.4441

                     28                     29                     30
                      A                      A                      A
 Frequencies --    300.3522               331.1206               340.1812
 Red. masses --      4.4280                11.9481                34.1222
 Frc consts  --      0.2354                 0.7718                 2.3265
 IR Inten    --     22.7588                39.7276               150.0292

                     31                     32                     33
                      A                      A                      A
 Frequencies --    353.0334               354.5019               379.0137
 Red. masses --     17.3205                 7.3687                 3.5879
 Frc consts  --      1.2719                 0.5456                 0.3037
 IR Inten    --    138.1768                68.6907                22.6467

                     34                     35                     36
                      A                      A                      A
 Frequencies --    406.4033               419.2307               425.9847
 Red. masses --      5.0701                 3.0035                 5.4417
 Frc consts  --      0.4934                 0.3110                 0.5818
 IR Inten    --     11.8015                 0.5944                26.7691

                     37                     38                     39
                      A                      A                      A
 Frequencies --    465.6582               493.2043               507.9171
 Red. masses --      2.9253                 2.8772                 2.8087
 Frc consts  --      0.3737                 0.4124                 0.4269
 IR Inten    --      2.5043                 5.1043                 8.5350

                     40                     41                     42
                      A                      A                      A
 Frequencies --    566.7598               569.0194               628.4943
 Red. masses --      3.9857                 2.4472                 6.3250
 Frc consts  --      0.7543                 0.4669                 1.4720
 IR Inten    --     62.1033                11.1007                 0.6214

                     43                     44                     45
                      A                      A                      A
 Frequencies --    654.3357               667.4307               708.6070
 Red. masses --      5.3110                 3.3342                 2.0757
 Frc consts  --      1.3398                 0.8751                 0.6141
 IR Inten    --     24.9003                37.4928               108.2034

                     46                     47                     48
                      A                      A                      A
 Frequencies --    711.7257               751.1883               753.8208
 Red. masses --      2.9514                 2.4216                 1.6698
 Frc consts  --      0.8808                 0.8051                 0.5590
 IR Inten    --     16.1313                17.4432                39.5366

                     49                     50                     51
                      A                      A                      A
 Frequencies --    782.5660               790.6396               810.9069
 Red. masses --      3.1967                 2.7882                 1.1462
 Frc consts  --      1.1534                 1.0269                 0.4441
 IR Inten    --     49.9231                19.1683                 1.1346

                     52                     53                     54
                      A                      A                      A
 Frequencies --    823.2388               838.0090               848.1871
 Red. masses --      2.5596                 3.2115                 1.2605
 Frc consts  --      1.0221                 1.3288                 0.5343
 IR Inten    --     46.3515                30.9490                 2.6587

                     55                     56                     57
                      A                      A                      A
 Frequencies --    867.7215               882.0807               922.0651
 Red. masses --      2.9393                 2.7154                 1.6328
 Frc consts  --      1.3039                 1.2448                 0.8179
 IR Inten    --     18.9513                 5.1174                55.5693

                     58                     59                     60
                      A                      A                      A
 Frequencies --    935.0658               962.4269               985.7136
 Red. masses --      1.8752                 2.7751                 1.3919
 Frc consts  --      0.9660                 1.5145                 0.7968
 IR Inten    --     16.0752                 7.8403                 2.3422

                     61                     62                     63
                      A                      A                      A
 Frequencies --    988.0779               994.0580              1002.3496
 Red. masses --      2.7104                 2.6688                 1.3281
 Frc consts  --      1.5591                 1.5538                 0.7862
 IR Inten    --      7.9786                51.1218                 5.1637

                     64                     65                     66
                      A                      A                      A
 Frequencies --   1009.7174              1011.8233              1018.4412
 Red. masses --      3.7406                 2.0702                 1.6498
 Frc consts  --      2.2469                 1.2488                 1.0082
 IR Inten    --      3.9147                 5.4699                16.8488

                     67                     68                     69
                      A                      A                      A
 Frequencies --   1037.0096              1054.2380              1059.0739
 Red. masses --      2.2993                 2.3391                 3.6538
 Frc consts  --      1.4569                 1.5317                 2.4146
 IR Inten    --     72.9408                 2.8517                92.4440

                     70                     71                     72
                      A                      A                      A
 Frequencies --   1081.6778              1089.6684              1099.8951
 Red. masses --      2.3970                 2.1485                 2.1823
 Frc consts  --      1.6524                 1.5031                 1.5555
 IR Inten    --     61.6099                25.3180               257.0378

                     73                     74                     75
                      A                      A                      A
 Frequencies --   1129.8865              1131.5472              1158.9160
 Red. masses --      2.4342                 2.0965                 1.9841
 Frc consts  --      1.8309                 1.5816                 1.5701
 IR Inten    --    261.7992                64.1542                33.7782

                     76                     77                     78
                      A                      A                      A
 Frequencies --   1168.8155              1170.0622              1185.3684
 Red. masses --      1.5536                 1.0845                 1.7661
 Frc consts  --      1.2505                 0.8748                 1.4621
 IR Inten    --      6.8011                 0.3395                72.9650

                     79                     80                     81
                      A                      A                      A
 Frequencies --   1205.0615              1216.3622              1246.9191
 Red. masses --      1.1625                 1.7571                 1.3749
 Frc consts  --      0.9946                 1.5317                 1.2595
 IR Inten    --      5.9074                39.5119                13.1600

                     82                     83                     84
                      A                      A                      A
 Frequencies --   1257.6094              1277.0591              1282.7633
 Red. masses --      1.6565                 1.7683                 1.2819
 Frc consts  --      1.5436                 1.6991                 1.2428
 IR Inten    --    104.6535               128.7616                46.2115

                     85                     86                     87
                      A                      A                      A
 Frequencies --   1291.0807              1303.8290              1317.5782
 Red. masses --      1.6985                 1.4266                 1.2194
 Frc consts  --      1.6681                 1.4289                 1.2472
 IR Inten    --    221.7094                40.4710                45.4629

                     88                     89                     90
                      A                      A                      A
 Frequencies --   1321.2325              1327.7095              1335.3684
 Red. masses --      1.3189                 1.1815                 1.8125
 Frc consts  --      1.3565                 1.2271                 1.9043
 IR Inten    --     69.0185                43.2836                27.7260

                     91                     92                     93
                      A                      A                      A
 Frequencies --   1359.2728              1360.0608              1368.6569
 Red. masses --      2.6230                 1.4665                 1.4957
 Frc consts  --      2.8553                 1.5983                 1.6508
 IR Inten    --     10.1485               114.8309                12.2591

                     94                     95                     96
                      A                      A                      A
 Frequencies --   1379.4055              1393.2882              1410.3121
 Red. masses --      1.3492                 1.1317                 1.4700
 Frc consts  --      1.5126                 1.2944                 1.7227
 IR Inten    --     25.4644                10.0761                 6.0063

                     97                     98                     99
                      A                      A                      A
 Frequencies --   1418.9731              1447.0514              1468.4231
 Red. masses --      1.1645                 1.7022                 1.0453
 Frc consts  --      1.3814                 2.1000                 1.3280
 IR Inten    --      1.0588               110.4042                 4.8297

                    100                    101                    102
                      A                      A                      A
 Frequencies --   1469.8839              1478.2170              1480.4664
 Red. masses --      2.2190                 1.0552                 1.0916
 Frc consts  --      2.8247                 1.3585                 1.4097
 IR Inten    --     18.9583                 0.5629                 6.5222

                    103                    104                    105
                      A                      A                      A
 Frequencies --   1488.4791              1498.1977              1501.5690
 Red. masses --      1.2265                 1.1830                 1.0876
 Frc consts  --      1.6011                 1.5645                 1.4448
 IR Inten    --      9.7367                49.2426                13.8433

                    106                    107                    108
                      A                      A                      A
 Frequencies --   1502.9623              1522.2237              1625.9386
 Red. masses --      1.3010                 2.1489                 5.7708
 Frc consts  --      1.7315                 2.9338                 8.9886
 IR Inten    --     23.2244                13.2003                 1.5263

                    109                    110                    111
                      A                      A                      A
 Frequencies --   1646.2204              1741.5014              2869.6327
 Red. masses --      5.8560                11.4550                 1.0647
 Frc consts  --      9.3503                20.4688                 5.1658
 IR Inten    --      1.2349               455.9908               409.2992

                    112                    113                    114
                      A                      A                      A
 Frequencies --   2948.9694              3039.0798              3064.9685
 Red. masses --      1.0589                 1.0349                 1.0592
 Frc consts  --      5.4254                 5.6318                 5.8626
 IR Inten    --     97.4711                25.1372                36.0178

                    115                    116                    117
                      A                      A                      A
 Frequencies --   3065.2292              3085.8972              3086.1710
 Red. masses --      1.0649                 1.0611                 1.0715
 Frc consts  --      5.8951                 5.9534                 6.0131
 IR Inten    --      9.1409                20.6906                 2.8514

                    118                    119                    120
                      A                      A                      A
 Frequencies --   3096.5596              3106.4152              3109.2537
 Red. masses --      1.0691                 1.0845                 1.1048
 Frc consts  --      6.0397                 6.1660                 6.2926
 IR Inten    --      2.9206                15.4634                 3.5242

                    121                    122                    123
                      A                      A                      A
 Frequencies --   3119.6230              3125.5023              3131.5529
 Red. masses --      1.1015                 1.0991                 1.1071
 Frc consts  --      6.3160                 6.3257                 6.3965
 IR Inten    --     27.4261                 9.4482                49.9916

                    124                    125                    126
                      A                      A                      A
 Frequencies --   3142.6673              3147.2785              3172.6015
 Red. masses --      1.0983                 1.0940                 1.0853
 Frc consts  --      6.3907                 6.3849                 6.4361
 IR Inten    --     12.3455                13.5570                 0.2353

                    127                    128                    129
                      A                      A                      A
 Frequencies --   3179.8342              3181.8333              3193.3961
 Red. masses --      1.1050                 1.0897                 1.0939
 Frc consts  --      6.5832                 6.5000                 6.5726
 IR Inten    --     12.3869                13.4383                35.7672

                    130                    131                    132
                      A                      A                      A
 Frequencies --   3202.0515              3216.0402              3219.5967
 Red. masses --      1.0955                 1.0997                 1.0924
 Frc consts  --      6.6180                 6.7012                 6.6719
 IR Inten    --     15.8053                 4.0634                 2.5766

 - Thermochemistry -
 -------------------
 Temperature   298.150 Kelvin.  Pressure   1.00000 Atm.
 Atom     1 has atomic number  6 and mass  12.00000

 Molecular mass:   434.99839 amu.
 Principal axes and moments of inertia in atomic units:
                           1         2         3
     Eigenvalues --  7339.81204********************
           X            0.99885  -0.04788  -0.00250
           Y            0.04789   0.99885   0.00234
           Z            0.00238  -0.00246   0.99999
 This molecule is an asymmetric top.
 Rotational symmetry number  1.
 Warning -- assumption of classical behavior for rotation
           may cause significant error
 Rotational temperatures (Kelvin)      0.01180     0.00692     0.00609
 Rotational constants (GHZ):           0.24588     0.14409     0.12684
 Zero-point vibrational energy     944819.1 (Joules/Mol)
                                  225.81719 (Kcal/Mol)
 Warning -- explicit consideration of  41 degrees of freedom as
           vibrations may cause significant error
 Vibrational temperatures:     52.98    64.07    78.85    89.77    95.17
          (Kelvin)            100.27   111.97   125.47   130.38   136.52
                              142.81   160.22   165.62   179.48   198.81
                              210.82   226.71   240.51   265.74   270.94
                              290.68   324.59   345.20   364.75   386.72
                              404.36   428.17   432.14   476.41   489.44
                              507.94   510.05   545.32   584.72   603.18
                              612.90   669.98   709.61   730.78   815.44
                              818.69   904.26   941.44   960.28  1019.53
                             1024.01  1080.79  1084.58  1125.94  1137.55
                             1166.71  1184.46  1205.71  1220.35  1248.46
                             1269.12  1326.65  1345.35  1384.72  1418.22
                             1421.62  1430.23  1442.16  1452.76  1455.79
                             1465.31  1492.03  1516.81  1523.77  1556.29
                             1567.79  1582.50  1625.65  1628.04  1667.42
                             1681.66  1683.46  1705.48  1733.81  1750.07
                             1794.04  1809.42  1837.40  1845.61  1857.58
                             1875.92  1895.70  1900.96  1910.28  1921.30
                             1955.69  1956.82  1969.19  1984.66  2004.63
                             2029.12  2041.59  2081.98  2112.73  2114.84
                             2126.82  2130.06  2141.59  2155.57  2160.42
                             2162.43  2190.14  2339.36  2368.54  2505.63
                             4128.76  4242.91  4372.56  4409.81  4410.18
                             4439.92  4440.31  4455.26  4469.44  4473.52
                             4488.44  4496.90  4505.61  4521.60  4528.23
                             4564.67  4575.07  4577.95  4594.58  4607.04
                             4627.16  4632.28

 Zero-point correction=                           0.359863 (Hartree/Particle)
 Thermal correction to Energy=                    0.387097
 Thermal correction to Enthalpy=                  0.388041
 Thermal correction to Gibbs Free Energy=         0.300063
 Sum of electronic and zero-point Energies=          -3531.195503
 Sum of electronic and thermal Energies=             -3531.168269
 Sum of electronic and thermal Enthalpies=           -3531.167325
 Sum of electronic and thermal Free Energies=        -3531.255303

                     E (Thermal)             CV                S
                      KCal/Mol        Cal/Mol-Kelvin    Cal/Mol-Kelvin
 Total                  242.907             98.382            185.166
 Electronic               0.000              0.000              3.561
 Translational            0.889              2.981             44.100
 Rotational               0.889              2.981             35.524
 Vibrational            241.129             92.420            101.981
 Vibration     1          0.594              1.982              5.423
 Vibration     2          0.595              1.980              5.047
 Vibration     3          0.596              1.976              4.636
 Vibration     4          0.597              1.972              4.380
 Vibration     5          0.598              1.970              4.265
 Vibration     6          0.598              1.969              4.162
 Vibration     7          0.599              1.964              3.945
 Vibration     8          0.601              1.958              3.722
 Vibration     9          0.602              1.956              3.647
 Vibration    10          0.603              1.953              3.557
 Vibration    11          0.604              1.950              3.469
 Vibration    12          0.607              1.940              3.245
 Vibration    13          0.608              1.937              3.181
 Vibration    14          0.610              1.928              3.025
 Vibration    15          0.614              1.915              2.829
 Vibration    16          0.617              1.906              2.717
 Vibration    17          0.621              1.894              2.579
 Vibration    18          0.624              1.883              2.467
 Vibration    19          0.631              1.861              2.280
 Vibration    20          0.633              1.856              2.244
 Vibration    21          0.639              1.837              2.114
 Vibration    22          0.650              1.802              1.914
 Vibration    23          0.657              1.779              1.803
 Vibration    24          0.665              1.757              1.706
 Vibration    25          0.673              1.731              1.604
 Vibration    26          0.681              1.709              1.527
 Vibration    27          0.691              1.678              1.430
 Vibration    28          0.693              1.673              1.415
 Vibration    29          0.713              1.613              1.255
 Vibration    30          0.720              1.595              1.211
 Vibration    31          0.729              1.569              1.153
 Vibration    32          0.730              1.566              1.146
 Vibration    33          0.749              1.515              1.043
 Vibration    34          0.771              1.456              0.939
 Vibration    35          0.782              1.428              0.895
 Vibration    36          0.788              1.414              0.872
 Vibration    37          0.823              1.326              0.750
 Vibration    38          0.849              1.265              0.675
 Vibration    39          0.863              1.232              0.639
 Vibration    40          0.923              1.103              0.511
 Vibration    41          0.925              1.098              0.506

 Optimization completed.
    -- Stationary point found.
 Normal termination of Gaussian 16 at Wed Jun 30 09:33:39 2021.
