 Gaussian 16, Revision A.03,
 Gaussian 16:  ES64L-G16RevA.03 25-Dec-2016

 ----------------------------------------------------------------------
 #p opt freq=noraman ub3lyp jul-cc-pvdz scrf=(pcm,solvent=dichloroethan
 e) pop=cm5
 ----------------------------------------------------------------------

 -----
 title
 -----
 Symbolic Z-matrix:
 Charge =  0 Multiplicity = 1

 SCF Done:  E(UB3LYP) =  -886.841853305     A.U. after   14 cycles
 SCF Done:  E(UB3LYP) =  -886.842261738     A.U. after   14 cycles
 SCF Done:  E(UB3LYP) =  -886.841982133     A.U. after   14 cycles
 SCF Done:  E(UB3LYP) =  -886.842830064     A.U. after   14 cycles
 SCF Done:  E(UB3LYP) =  -886.842934534     A.U. after   11 cycles
 SCF Done:  E(UB3LYP) =  -886.843159924     A.U. after   11 cycles
 SCF Done:  E(UB3LYP) =  -886.843272372     A.U. after   12 cycles
 SCF Done:  E(UB3LYP) =  -886.843304869     A.U. after   11 cycles
 SCF Done:  E(UB3LYP) =  -886.843313258     A.U. after   10 cycles
 SCF Done:  E(UB3LYP) =  -886.843316556     A.U. after   10 cycles
 SCF Done:  E(UB3LYP) =  -886.843317044     A.U. after    9 cycles
 SCF Done:  E(UB3LYP) =  -886.843317435     A.U. after    9 cycles
 SCF Done:  E(UB3LYP) =  -886.843317566     A.U. after    8 cycles
 SCF Done:  E(UB3LYP) =  -886.843317557     A.U. after    7 cycles
 SCF Done:  E(UB3LYP) =  -886.843317542     A.U. after    7 cycles
 Optimization completed.
    -- Stationary point found.
 Normal termination of Gaussian 16 at Sat Jun 26 17:07:54 2021.

 ----------------------------------------------------------------------
 #P Geom=AllCheck Guess=TCheck SCRF=Check GenChk UB3LYP/Jul-CC-pVDZ Fre
 q
 ----------------------------------------------------------------------

 Structure from the checkpoint file:  "/scratch/kwaneu.3001756.bmbhpcps002/Gau-35906.chk"
 -----
 title
 -----
 Charge =  0 Multiplicity = 1

                         Standard orientation:
 ---------------------------------------------------------------------
 Center     Atomic      Atomic             Coordinates (Angstroms)
 Number     Number       Type             X           Y           Z
 ---------------------------------------------------------------------
      1          6           0       -2.615220   -1.111803   -1.096504
      2          6           0       -1.905230   -1.226425    0.112754
      3          6           0       -2.472897   -1.967028    1.167642
      4          6           0       -3.716926   -2.576513    1.018822
      5          6           0       -4.415345   -2.456497   -0.190621
      6          6           0       -3.862729   -1.724067   -1.245825
      7          6           0       -0.566016   -0.592859    0.330768
      8          6           0        0.014979    0.316933   -0.768886
      9          6           0        1.515994    0.616905   -0.568377
     10          6           0        2.417604   -0.592290   -0.882914
     11          6           0        3.879251   -0.239648   -0.801265
     12          6           0        4.804972   -0.707612    0.056627
     13          6           0        6.235878   -0.228517   -0.012074
     14          8           0        0.056138   -0.785594    1.365955
     15          6           0        4.540491   -1.723942    1.140151
     16          1           0       -1.921022   -2.052228    2.103396
     17          1           0       -4.146221   -3.146007    1.844228
     18          1           0       -5.389198   -2.934280   -0.308994
     19          1           0       -4.402003   -1.629512   -2.189043
     20          1           0       -2.205864   -0.549135   -1.934227
     21          1           0       -0.119875   -0.170824   -1.742294
     22          6           0       -0.765300    1.626338   -0.862005
     23          1           0        1.791021    1.449817   -1.233207
     24          1           0        1.684512    0.953484    0.462371
     25          1           0        2.168288   -1.421029   -0.209486
     26          1           0        2.189939   -0.934523   -1.907505
     27          1           0        4.210470    0.503501   -1.536820
     28          1           0        4.819213   -1.314105    2.124664
     29          1           0        3.493550   -2.043536    1.189970
     30          1           0        5.165910   -2.619066    0.988693
     31          1           0        6.542450    0.230513    0.942395
     32          1           0        6.924534   -1.071808   -0.186679
     33          1           0        6.381859    0.508516   -0.813380
     34          8           0       -0.956298    2.178473    0.344450
     35          8           0       -1.135323    2.128352   -1.907243
     36          6           0       -1.647968    3.462722    0.382885
     37          6           0       -1.750439    3.884195    1.833573
     38          1           0       -1.071865    4.178472   -0.217910
     39          1           0       -2.633619    3.332804   -0.082680
     40          1           0       -2.269229    4.851491    1.890863
     41          1           0       -2.321129    3.150011    2.418670
     42          1           0       -0.754461    3.998235    2.283162
 ---------------------------------------------------------------------

 SCF Done:  E(UB3LYP) =  -886.843317542     A.U. after    1 cycles

 The electronic state is 1-A.
 Alpha  occ. eigenvalues --  -19.20532 -19.15340 -19.15260 -10.33227 -10.29301
 Alpha  occ. eigenvalues --  -10.25042 -10.21786 -10.21393 -10.21216 -10.21071
 Alpha  occ. eigenvalues --  -10.20779 -10.20646 -10.20602 -10.19532 -10.19334
 Alpha  occ. eigenvalues --  -10.18829 -10.18684 -10.17935 -10.17920 -10.17774
 Alpha  occ. eigenvalues --   -1.12226  -1.06127  -1.03518  -0.87522  -0.83219
 Alpha  occ. eigenvalues --   -0.81201  -0.78050  -0.77778  -0.76428  -0.74170
 Alpha  occ. eigenvalues --   -0.69094  -0.67621  -0.65899  -0.63658  -0.62166
 Alpha  occ. eigenvalues --   -0.60266  -0.58298  -0.56302  -0.54050  -0.51942
 Alpha  occ. eigenvalues --   -0.50396  -0.49912  -0.49713  -0.48280  -0.47323
 Alpha  occ. eigenvalues --   -0.46555  -0.45501  -0.44869  -0.43759  -0.43676
 Alpha  occ. eigenvalues --   -0.43123  -0.42877  -0.42303  -0.40790  -0.40258
 Alpha  occ. eigenvalues --   -0.39420  -0.39277  -0.38238  -0.37516  -0.37285
 Alpha  occ. eigenvalues --   -0.36976  -0.36767  -0.36441  -0.36098  -0.35878
 Alpha  occ. eigenvalues --   -0.35416  -0.34205  -0.32724  -0.31899  -0.29824
 Alpha  occ. eigenvalues --   -0.27491  -0.27194  -0.26867  -0.23883
 Alpha virt. eigenvalues --   -0.08015  -0.03188  -0.01387  -0.00508  -0.00013
 Alpha virt. eigenvalues --    0.00436   0.00971   0.01138   0.01519   0.01717
 Alpha virt. eigenvalues --    0.02313   0.02633   0.02901   0.03236   0.03717

  Beta  occ. eigenvalues --  -19.20532 -19.15340 -19.15260 -10.33227 -10.29301
  Beta  occ. eigenvalues --  -10.25042 -10.21786 -10.21393 -10.21216 -10.21071
  Beta  occ. eigenvalues --  -10.20779 -10.20646 -10.20602 -10.19532 -10.19334
  Beta  occ. eigenvalues --  -10.18829 -10.18684 -10.17935 -10.17920 -10.17774
  Beta  occ. eigenvalues --   -1.12226  -1.06127  -1.03518  -0.87522  -0.83219
  Beta  occ. eigenvalues --   -0.81201  -0.78050  -0.77778  -0.76428  -0.74170
  Beta  occ. eigenvalues --   -0.69094  -0.67621  -0.65899  -0.63658  -0.62166
  Beta  occ. eigenvalues --   -0.60266  -0.58298  -0.56302  -0.54050  -0.51942
  Beta  occ. eigenvalues --   -0.50396  -0.49912  -0.49713  -0.48280  -0.47323
  Beta  occ. eigenvalues --   -0.46555  -0.45501  -0.44869  -0.43759  -0.43676
  Beta  occ. eigenvalues --   -0.43123  -0.42877  -0.42303  -0.40790  -0.40258
  Beta  occ. eigenvalues --   -0.39420  -0.39277  -0.38238  -0.37516  -0.37285
  Beta  occ. eigenvalues --   -0.36976  -0.36767  -0.36441  -0.36098  -0.35878
  Beta  occ. eigenvalues --   -0.35416  -0.34205  -0.32724  -0.31899  -0.29824
  Beta  occ. eigenvalues --   -0.27491  -0.27194  -0.26867  -0.23883
  Beta virt. eigenvalues --   -0.08015  -0.03188  -0.01387  -0.00508  -0.00013
  Beta virt. eigenvalues --    0.00436   0.00971   0.01138   0.01519   0.01717
  Beta virt. eigenvalues --    0.02313   0.02633   0.02901   0.03236   0.03717

 Mulliken charges and spin densities:
               1          2
     1  C    0.068552   0.000000
     2  C    2.038053   0.000000
     3  C   -0.492637   0.000000
     4  C   -0.019388   0.000000
     5  C    0.243659   0.000000
     6  C   -0.279780   0.000000
     7  C    0.233058   0.000000
     8  C   -0.060304   0.000000
     9  C    0.167902   0.000000
    10  C    0.139080   0.000000
    11  C    0.305521   0.000000
    12  C   -0.213299   0.000000
    13  C    0.130076   0.000000
    14  O   -0.708629   0.000000
    15  C    0.138715   0.000000
    16  H   -0.180373   0.000000
    17  H   -0.158041   0.000000
    18  H   -0.161880   0.000000
    19  H   -0.156185   0.000000
    20  H   -0.176856   0.000000
    21  H   -0.140607   0.000000
    22  C    0.637680   0.000000
    23  H   -0.100189   0.000000
    24  H   -0.050350   0.000000
    25  H   -0.103054   0.000000
    26  H   -0.072901   0.000000
    27  H   -0.208134   0.000000
    28  H    0.017968   0.000000
    29  H   -0.014894   0.000000
    30  H    0.009099   0.000000
    31  H    0.009001   0.000000
    32  H    0.006752   0.000000
    33  H   -0.038181   0.000000
    34  O   -0.655909   0.000000
    35  O   -0.642988   0.000000
    36  C    0.464616   0.000000
    37  C    0.077229   0.000000
    38  H   -0.043899   0.000000
    39  H   -0.043864   0.000000
    40  H   -0.006776   0.000000
    41  H    0.021354   0.000000
    42  H    0.020804   0.000000
 Sum of Mulliken charges =  -0.00000   0.00000

 Dipole moment (field-independent basis, Debye):
    X=             -2.2211    Y=             -0.1765    Z=              0.2288  Tot=              2.2398
 Quadrupole moment (field-independent basis, Debye-Ang):
   XX=           -104.1830   YY=           -112.4034   ZZ=           -126.1700
   XY=              4.8954   XZ=             -2.3839   YZ=              7.1063

  Exact polarizability: 327.034  21.069 251.429  26.645 -23.294 273.909
 Approx polarizability: 352.768  23.013 280.267  41.987 -32.291 343.213

                      1                      2                      3
                      A                      A                      A
 Frequencies --     16.8474                19.5833                25.4536
 Red. masses --      4.3181                 3.4993                 3.7838
 Frc consts  --      0.0007                 0.0008                 0.0014
 IR Inten    --      1.4421                 0.7209                 0.9907

                      4                      5                      6
                      A                      A                      A
 Frequencies --     29.6951                35.2150                61.1990
 Red. masses --      3.8115                 3.6878                 3.6668
 Frc consts  --      0.0020                 0.0027                 0.0081
 IR Inten    --      0.5569                 0.1271                 0.5621

                      7                      8                      9
                      A                      A                      A
 Frequencies --     71.1586                76.8678                96.9926
 Red. masses --      3.1409                 3.3673                 3.7762
 Frc consts  --      0.0094                 0.0117                 0.0209
 IR Inten    --      1.5130                 1.0973                 0.7482

                     10                     11                     12
                      A                      A                      A
 Frequencies --    116.9078               139.5522               142.6923
 Red. masses --      2.9762                 2.9513                 1.1249
 Frc consts  --      0.0240                 0.0339                 0.0135
 IR Inten    --      2.2671                 0.8523                 0.4913

                     13                     14                     15
                      A                      A                      A
 Frequencies --    155.8503               183.9569               193.1437
 Red. masses --      4.8507                 3.2370                 1.5289
 Frc consts  --      0.0694                 0.0645                 0.0336
 IR Inten    --      1.2540                 5.5459                 5.7154

                     16                     17                     18
                      A                      A                      A
 Frequencies --    214.4940               244.8849               260.6542
 Red. masses --      1.6345                 3.8292                 1.4603
 Frc consts  --      0.0443                 0.1353                 0.0585
 IR Inten    --      1.5220                 4.0801                 1.8580

                     19                     20                     21
                      A                      A                      A
 Frequencies --    282.7051               312.9830               337.1341
 Red. masses --      2.6727                 3.6941                 3.4414
 Frc consts  --      0.1259                 0.2132                 0.2305
 IR Inten    --     12.1139                 5.6581                 0.8803

                     22                     23                     24
                      A                      A                      A
 Frequencies --    361.8217               382.3361               406.9578
 Red. masses --      5.0140                 2.8331                 3.6049
 Frc consts  --      0.3867                 0.2440                 0.3518
 IR Inten    --     10.3680                 6.5987                 1.9134

                     25                     26                     27
                      A                      A                      A
 Frequencies --    409.2655               430.7393               448.8535
 Red. masses --      2.8382                 3.4021                 3.3501
 Frc consts  --      0.2801                 0.3719                 0.3977
 IR Inten    --      0.0063                 8.3706                 6.1207

                     28                     29                     30
                      A                      A                      A
 Frequencies --    484.1787               499.1268               541.4272
 Red. masses --      3.3560                 3.8363                 2.8961
 Frc consts  --      0.4635                 0.5631                 0.5002
 IR Inten    --      3.0782                12.7432                 9.7959

                     31                     32                     33
                      A                      A                      A
 Frequencies --    604.6407               624.0340               668.8136
 Red. masses --      4.6316                 6.4011                 3.5145
 Frc consts  --      0.9976                 1.4687                 0.9262
 IR Inten    --     13.6265                 0.8235                21.4239

                     34                     35                     36
                      A                      A                      A
 Frequencies --    694.5767               724.8192               734.1233
 Red. masses --      1.6819                 2.1669                 2.6215
 Frc consts  --      0.4781                 0.6707                 0.8324
 IR Inten    --     68.4298                 5.2159                30.6122

                     37                     38                     39
                      A                      A                      A
 Frequencies --    757.5416               787.5988               807.8991
 Red. masses --      2.9561                 2.8806                 1.3468
 Frc consts  --      0.9995                 1.0528                 0.5179
 IR Inten    --      7.7799                 2.8451                 5.5033

                     40                     41                     42
                      A                      A                      A
 Frequencies --    809.4017               842.9038               847.0794
 Red. masses --      1.9159                 2.4385                 1.2902
 Frc consts  --      0.7395                 1.0208                 0.5454
 IR Inten    --      9.6182                19.0549                 1.7993

                     43                     44                     45
                      A                      A                      A
 Frequencies --    852.2469               880.1824               943.8138
 Red. masses --      1.5850                 2.8062                 2.0679
 Frc consts  --      0.6783                 1.2809                 1.0853
 IR Inten    --     20.8629                 8.9005                17.2000

                     46                     47                     48
                      A                      A                      A
 Frequencies --    950.9507               961.4400               970.3361
 Red. masses --      2.2978                 1.4350                 3.6239
 Frc consts  --      1.2243                 0.7815                 2.0103
 IR Inten    --     40.0176                 4.7627                33.4359

                     49                     50                     51
                      A                      A                      A
 Frequencies --    991.8909               995.9318              1002.9373
 Red. masses --      1.3865                 4.4657                 2.0333
 Frc consts  --      0.8037                 2.6098                 1.2050
 IR Inten    --      0.9904                 3.3569                10.2528

                     52                     53                     54
                      A                      A                      A
 Frequencies --   1005.6311              1010.7275              1033.2364
 Red. masses --      1.3566                 1.3329                 2.9857
 Frc consts  --      0.8083                 0.8022                 1.8780
 IR Inten    --     11.3451                 0.3943                32.2911

                     55                     56                     57
                      A                      A                      A
 Frequencies --   1044.5715              1049.0758              1057.5593
 Red. masses --      2.2679                 3.0743                 2.0224
 Frc consts  --      1.4580                 1.9935                 1.3327
 IR Inten    --     22.5675               107.4599                14.8713

                     58                     59                     60
                      A                      A                      A
 Frequencies --   1085.0736              1096.5720              1102.8804
 Red. masses --      2.5629                 1.6843                 1.6238
 Frc consts  --      1.7779                 1.1933                 1.1637
 IR Inten    --      7.8915                 0.0297                 6.7554

                     61                     62                     63
                      A                      A                      A
 Frequencies --   1126.3259              1128.8887              1161.1332
 Red. masses --      1.9205                 2.1286                 1.4285
 Frc consts  --      1.4355                 1.5983                 1.1347
 IR Inten    --     42.5717                 3.9656                 7.9618

                     64                     65                     66
                      A                      A                      A
 Frequencies --   1165.8371              1169.1000              1191.7744
 Red. masses --      1.5420                 1.0980                 1.1589
 Frc consts  --      1.2348                 0.8842                 0.9698
 IR Inten    --      5.2779                 4.2451                51.0721

                     67                     68                     69
                      A                      A                      A
 Frequencies --   1212.7979              1229.9631              1245.3169
 Red. masses --      2.1983                 2.2996                 2.2487
 Frc consts  --      1.9051                 2.0497                 2.0547
 IR Inten    --    305.1092               142.0225               155.1455

                     70                     71                     72
                      A                      A                      A
 Frequencies --   1273.6296              1281.6845              1298.1601
 Red. masses --      1.8498                 1.1016                 1.6436
 Frc consts  --      1.7679                 1.0662                 1.6319
 IR Inten    --    164.9917                 2.5882               142.9439

                     73                     74                     75
                      A                      A                      A
 Frequencies --   1309.9240              1327.7889              1357.3783
 Red. masses --      1.2250                 1.4456                 2.2525
 Frc consts  --      1.2385                 1.5016                 2.4453
 IR Inten    --     10.1024                 0.2077                49.8228

                     76                     77                     78
                      A                      A                      A
 Frequencies --   1360.5150              1362.4672              1375.3184
 Red. masses --      1.5825                 1.7610                 1.3518
 Frc consts  --      1.7258                 1.9260                 1.5065
 IR Inten    --     17.3116                12.2422                 9.4224

                     79                     80                     81
                      A                      A                      A
 Frequencies --   1378.7342              1395.6613              1403.1375
 Red. masses --      1.3798                 1.3793                 1.3219
 Frc consts  --      1.5454                 1.5829                 1.5334
 IR Inten    --      5.0952                 8.8079                 5.0394

                     82                     83                     84
                      A                      A                      A
 Frequencies --   1407.9537              1457.5472              1459.8804
 Red. masses --      1.4244                 1.0472                 1.0777
 Frc consts  --      1.6637                 1.3107                 1.3532
 IR Inten    --     10.6601                 0.6270                 7.3036

                     85                     86                     87
                      A                      A                      A
 Frequencies --   1466.9880              1467.2535              1468.3518
 Red. masses --      2.2771                 1.0412                 1.0692
 Frc consts  --      2.8873                 1.3207                 1.3582
 IR Inten    --     26.5505                 8.6272                 2.0952

                     88                     89                     90
                      A                      A                      A
 Frequencies --   1474.2956              1475.8036              1477.0318
 Red. masses --      1.0431                 1.0544                 1.0758
 Frc consts  --      1.3358                 1.3530                 1.3828
 IR Inten    --     19.7310                 2.2965                 8.2557

                     91                     92                     93
                      A                      A                      A
 Frequencies --   1485.4318              1500.1215              1513.5430
 Red. masses --      1.0927                 1.0863                 2.2190
 Frc consts  --      1.4205                 1.4404                 2.9950
 IR Inten    --     10.2900                11.8743                 3.3095

                     94                     95                     96
                      A                      A                      A
 Frequencies --   1616.7820              1636.0036              1709.0629
 Red. masses --      5.6680                 5.7763                12.0767
 Frc consts  --      8.7293                 9.1090                20.7833
 IR Inten    --     27.9873                68.4681               696.4664

                     97                     98                     99
                      A                      A                      A
 Frequencies --   1729.5961              1741.0246              3002.2127
 Red. masses --      6.7513                11.3540                 1.0705
 Frc consts  --     11.8994                20.2773                 5.6848
 IR Inten    --     24.7933               182.9310                56.7105

                    100                    101                    102
                      A                      A                      A
 Frequencies --   3005.7731              3014.2134              3040.2805
 Red. masses --      1.0381                 1.0412                 1.0353
 Frc consts  --      5.5257                 5.5736                 5.6384
 IR Inten    --     46.8533                72.7676                19.9590

                    103                    104                    105
                      A                      A                      A
 Frequencies --   3040.7191              3055.9995              3059.7001
 Red. masses --      1.0649                 1.0993                 1.0988
 Frc consts  --      5.8010                 6.0490                 6.0607
 IR Inten    --     35.2338                21.9828                45.9401

                    106                    107                    108
                      A                      A                      A
 Frequencies --   3064.0254              3084.9299              3096.0498
 Red. masses --      1.0578                 1.0844                 1.0879
 Frc consts  --      5.8510                 6.0802                 6.1439
 IR Inten    --     25.1570                 4.6120                 6.8379

                    109                    110                    111
                      A                      A                      A
 Frequencies --   3104.4049              3107.4770              3108.0813
 Red. masses --      1.0961                 1.1063                 1.0971
 Frc consts  --      6.2239                 6.2943                 6.2445
 IR Inten    --     15.2128                 0.1265                25.2647

                    112                    113                    114
                      A                      A                      A
 Frequencies --   3114.5308              3118.9386              3129.5078
 Red. masses --      1.0945                 1.1015                 1.1073
 Frc consts  --      6.2552                 6.3130                 6.3897
 IR Inten    --     81.8101                31.2329                56.3672

                    115                    116                    117
                      A                      A                      A
 Frequencies --   3132.4003              3173.7342              3184.4870
 Red. masses --      1.0957                 1.0854                 1.0897
 Frc consts  --      6.3345                 6.4414                 6.5109
 IR Inten    --     43.2329                 0.2412                11.4236

                    118                    119                    120
                      A                      A                      A
 Frequencies --   3194.0029              3205.2923              3207.7789
 Red. masses --      1.0942                 1.0935                 1.0952
 Frc consts  --      6.5767                 6.6193                 6.6400
 IR Inten    --     19.9120                13.8526                 5.4105

 - Thermochemistry -
 -------------------
 Temperature   298.150 Kelvin.  Pressure   1.00000 Atm.
 Atom     1 has atomic number  6 and mass  12.00000

 Molecular mass:   274.15689 amu.
 Principal axes and moments of inertia in atomic units:
                           1         2         3
     Eigenvalues --  4510.434119940.10648**********
           X            0.99990  -0.01414  -0.00026
           Y            0.01414   0.99972   0.01883
           Z           -0.00000  -0.01883   0.99982
 This molecule is an asymmetric top.
 Rotational symmetry number  1.
 Warning -- assumption of classical behavior for rotation
           may cause significant error
 Rotational temperatures (Kelvin)      0.01920     0.00871     0.00703
 Rotational constants (GHZ):           0.40013     0.18156     0.14654
 Zero-point vibrational energy     927153.2 (Joules/Mol)
                                  221.59494 (Kcal/Mol)
 Warning -- explicit consideration of  31 degrees of freedom as
           vibrations may cause significant error
 Vibrational temperatures:     24.24    28.18    36.62    42.72    50.67
          (Kelvin)             88.05   102.38   110.60   139.55   168.20
                              200.78   205.30   224.23   264.67   277.89
                              308.61   352.33   375.02   406.75   450.31
                              485.06   520.58   550.10   585.52   588.84
                              619.74   645.80   696.63   718.13   778.99
                              869.94   897.85   962.27   999.34  1042.85
                             1056.24  1089.93  1133.18  1162.39  1164.55
                             1212.75  1218.76  1226.19  1266.39  1357.94
                             1368.21  1383.30  1396.10  1427.11  1432.92
                             1443.00  1446.88  1454.21  1486.60  1502.91
                             1509.39  1521.59  1561.18  1577.72  1586.80
                             1620.53  1624.22  1670.61  1677.38  1682.07
                             1714.70  1744.95  1769.64  1791.73  1832.47
                             1844.06  1867.76  1884.69  1910.39  1952.96
                             1957.48  1960.29  1978.78  1983.69  2008.05
                             2018.80  2025.73  2097.09  2100.44  2110.67
                             2111.05  2112.63  2121.18  2123.35  2125.12
                             2137.21  2158.34  2177.65  2326.19  2353.84
                             2458.96  2488.50  2504.95  4319.51  4324.64
                             4336.78  4374.29  4374.92  4396.90  4402.23
                             4408.45  4438.53  4454.53  4466.55  4470.97
                             4471.84  4481.12  4487.46  4502.66  4506.83
                             4566.30  4581.77  4595.46  4611.70  4615.28

 Zero-point correction=                           0.353134 (Hartree/Particle)
 Thermal correction to Energy=                    0.374789
 Thermal correction to Enthalpy=                  0.375733
 Thermal correction to Gibbs Free Energy=         0.298109
 Sum of electronic and zero-point Energies=           -886.490184
 Sum of electronic and thermal Energies=              -886.468529
 Sum of electronic and thermal Enthalpies=            -886.467585
 Sum of electronic and thermal Free Energies=         -886.545208

                     E (Thermal)             CV                S
                      KCal/Mol        Cal/Mol-Kelvin    Cal/Mol-Kelvin
 Total                  235.184             78.504            163.373
 Electronic               0.000              0.000              0.000
 Translational            0.889              2.981             42.724
 Rotational               0.889              2.981             34.667
 Vibrational            233.406             72.542             85.981
 Vibration     1          0.593              1.986              6.975
 Vibration     2          0.593              1.986              6.676
 Vibration     3          0.593              1.985              6.156
 Vibration     4          0.593              1.984              5.850
 Vibration     5          0.594              1.982              5.512
 Vibration     6          0.597              1.973              4.418
 Vibration     7          0.598              1.968              4.121
 Vibration     8          0.599              1.965              3.969
 Vibration     9          0.603              1.951              3.514
 Vibration    10          0.608              1.935              3.151
 Vibration    11          0.615              1.914              2.810
 Vibration    12          0.616              1.911              2.767
 Vibration    13          0.620              1.896              2.600
 Vibration    14          0.631              1.862              2.288
 Vibration    15          0.635              1.849              2.197
 Vibration    16          0.644              1.819              2.005
 Vibration    17          0.660              1.771              1.767
 Vibration    18          0.669              1.745              1.657
 Vibration    19          0.682              1.706              1.517
 Vibration    20          0.701              1.649              1.347
 Vibration    21          0.718              1.601              1.226
 Vibration    22          0.736              1.551              1.114
 Vibration    23          0.752              1.508              1.030
 Vibration    24          0.772              1.455              0.937
 Vibration    25          0.774              1.450              0.929
 Vibration    26          0.792              1.403              0.856
 Vibration    27          0.808              1.363              0.799
 Vibration    28          0.840              1.285              0.699
 Vibration    29          0.855              1.252              0.660
 Vibration    30          0.897              1.158              0.562
 Vibration    31          0.963              1.022              0.442

                           ! Non-Optimized Parameters !
 Normal termination of Gaussian 16 at Sat Jun 26 18:33:46 2021.
