 Gaussian 16, Revision A.03,
 Gaussian 16:  ES64L-G16RevA.03 25-Dec-2016

 ----------------------------------------------------------------------
 #p opt=(calcfc,ts,maxstep=5,noeigentest) freq=noraman ub3lyp empirical
 dispersion=gd3bj jul-cc-pvdz pop=cm5
 ----------------------------------------------------------------------

 -----
 title
 -----
 Symbolic Z-matrix:
 Charge =  0 Multiplicity = 6

 SCF Done:  E(UB3LYP) =  -3683.98784930     A.U. after   26 cycles
 Optimization completed.
    -- Stationary point found.
 Normal termination of Gaussian 16 at Mon Jun 14 02:34:02 2021.

 ----------------------------------------------------------------------
 #P Geom=AllCheck Guess=TCheck SCRF=Check GenChk UB3LYP/Jul-CC-pVDZ Fre
 q
 ----------------------------------------------------------------------

 Structure from the checkpoint file:  "/scratch/kwaneu.2872230.bmbhpcps002/Gau-32493.chk"
 -----
 title
 -----
 Charge =  0 Multiplicity = 6

                         Standard orientation:
 ---------------------------------------------------------------------
 Center     Atomic      Atomic             Coordinates (Angstroms)
 Number     Number       Type             X           Y           Z
 ---------------------------------------------------------------------
      1          6           0        1.576895    3.016265   -0.178208
      2          6           0        1.792555    1.794073    0.522048
      3          6           0        3.024401    1.109797    0.317349
      4          6           0        3.964552    1.595380   -0.582416
      5          6           0        3.713673    2.782649   -1.275984
      6          6           0        2.524805    3.500786   -1.060809
      7          6           0        0.817312    1.265674    1.408463
      8          6           0       -0.446615    1.956543    1.824069
      9          6           0       -1.142881    1.005074    2.830336
     10          6           0        0.013326    0.165106    3.388949
     11          6           0        1.001256    0.014346    2.213767
     12          6           0        0.580818   -1.146404    1.219951
     13          8           0       -0.385541   -0.572112    0.386979
     14         26           0       -1.850253   -1.403014   -0.426119
     15         17           0       -1.772924   -3.475113    0.363546
     16         17           0       -1.573237   -1.273663   -2.633591
     17         17           0       -3.659515   -0.298906    0.267782
     18          1           0        3.244326    0.203499    0.869912
     19          1           0        4.892719    1.048447   -0.741421
     20          1           0        4.453461    3.164510   -1.981214
     21          1           0        2.347329    4.434685   -1.593007
     22          1           0        0.659549    3.574961   -0.027605
     23          1           0       -0.094444    2.849249    2.376024
     24          6           0       -1.447808    2.506485    0.798008
     25          1           0       -1.680905    1.573673    3.595008
     26          1           0       -1.868079    0.384243    2.296159
     27          1           0        0.510620    0.691861    4.217065
     28          1           0       -0.313823   -0.811298    3.764927
     29          1           0        2.033504   -0.134247    2.545791
     30          8           0       -1.209555    2.115170   -0.449550
     31          8           0       -2.351475    3.227338    1.157769
     32          6           0       -2.160347    2.540629   -1.477367
     33          6           0       -1.444656    2.456559   -2.807424
     34          1           0       -3.013804    1.855294   -1.414384
     35          1           0       -2.497767    3.554512   -1.232420
     36          1           0       -2.144433    2.733444   -3.608448
     37          1           0       -0.589035    3.146957   -2.841639
     38          1           0       -1.096435    1.433451   -2.993308
     39          1           0        0.159596   -1.957936    1.837566
     40          6           0        1.753904   -1.703745    0.447856
     41          6           0        1.862924   -1.505895   -0.933567
     42          6           0        2.761722   -2.410218    1.121735
     43          6           0        2.974429   -1.995547   -1.628280
     44          1           0        1.067198   -0.982736   -1.459362
     45          6           0        3.875058   -2.887994    0.432229
     46          1           0        2.670670   -2.592763    2.194887
     47          6           0        3.986387   -2.676313   -0.949869
     48          1           0        3.042522   -1.845042   -2.706350
     49          1           0        4.650745   -3.439405    0.965201
     50          1           0        4.851855   -3.059055   -1.492402
 ---------------------------------------------------------------------

 SCF Done:  E(UB3LYP) =  -3683.98784930     A.U. after    2 cycles

 The electronic state is 6-A.
 Alpha  occ. eigenvalues -- -256.16605-101.48771-101.48603-101.48597 -30.16049
 Alpha  occ. eigenvalues --  -26.01380 -26.01232 -26.01220 -19.20720 -19.15329
 Alpha  occ. eigenvalues --  -19.13839 -10.33932 -10.31677 -10.26714 -10.26641
 Alpha  occ. eigenvalues --  -10.26469 -10.26192 -10.26158 -10.25097 -10.25081
 Alpha  occ. eigenvalues --  -10.24913 -10.24436 -10.23886 -10.21741 -10.21324
 Alpha  occ. eigenvalues --  -10.21282 -10.21086 -10.21073 -10.20939 -10.20786
 Alpha  occ. eigenvalues --  -10.20233 -10.18420  -9.40467  -9.40299  -9.40291
 Alpha  occ. eigenvalues --   -7.16332  -7.16164  -7.16157  -7.16030  -7.16004
 Alpha  occ. eigenvalues --   -7.15850  -7.15844  -7.15837  -7.15827  -3.63767
 Alpha  occ. eigenvalues --   -2.41349  -2.41028  -2.40996  -1.12727  -1.04094
 Alpha  occ. eigenvalues --   -1.01432  -0.93465  -0.90049  -0.87749  -0.83046
 Alpha  occ. eigenvalues --   -0.81777  -0.80451  -0.78473  -0.76757  -0.76566
 Alpha  occ. eigenvalues --   -0.76470  -0.75880  -0.75798  -0.75232  -0.69581
 Alpha  occ. eigenvalues --   -0.67112  -0.66636  -0.65907  -0.62560  -0.61846
 Alpha  occ. eigenvalues --   -0.61104  -0.59092  -0.58490  -0.57434  -0.54450
 Alpha  occ. eigenvalues --   -0.54176  -0.52629  -0.52260  -0.51191  -0.50316
 Alpha  occ. eigenvalues --   -0.49804  -0.48719  -0.48363  -0.47861  -0.47198
 Alpha  occ. eigenvalues --   -0.46546  -0.45586  -0.45479  -0.44505  -0.44171
 Alpha  occ. eigenvalues --   -0.44041  -0.43951  -0.43719  -0.43580  -0.43353
 Alpha  occ. eigenvalues --   -0.42923  -0.42085  -0.41085  -0.40515  -0.40254
 Alpha  occ. eigenvalues --   -0.39770  -0.39570  -0.38591  -0.38480  -0.38040
 Alpha  occ. eigenvalues --   -0.36786  -0.36496  -0.36401  -0.36113  -0.35830
 Alpha  occ. eigenvalues --   -0.34367  -0.33417  -0.32262  -0.31573  -0.31225
 Alpha  occ. eigenvalues --   -0.30889  -0.29646  -0.29521  -0.27926  -0.27470
 Alpha  occ. eigenvalues --   -0.27442  -0.27335  -0.27170  -0.27064  -0.26292
 Alpha  occ. eigenvalues --   -0.25792  -0.25492
 Alpha virt. eigenvalues --   -0.16963  -0.07088  -0.04979  -0.03407  -0.03183
 Alpha virt. eigenvalues --   -0.03079  -0.02469  -0.01750  -0.01243  -0.00328
 Alpha virt. eigenvalues --    0.00233   0.00528   0.01020   0.01199   0.01757

  Beta  occ. eigenvalues -- -256.16418-101.48582-101.48431-101.48426 -30.07159
  Beta  occ. eigenvalues --  -25.93921 -25.93851 -25.93823 -19.20721 -19.15328
  Beta  occ. eigenvalues --  -19.13191 -10.33932 -10.31678 -10.26695 -10.26638
  Beta  occ. eigenvalues --  -10.26469 -10.26189 -10.26156 -10.25096 -10.25082
  Beta  occ. eigenvalues --  -10.24915 -10.24436 -10.23865 -10.21741 -10.21324
  Beta  occ. eigenvalues --  -10.21270 -10.21084 -10.21071 -10.20938 -10.20787
  Beta  occ. eigenvalues --  -10.20232 -10.18419  -9.40281  -9.40132  -9.40122
  Beta  occ. eigenvalues --   -7.16022  -7.15881  -7.15867  -7.15773  -7.15747
  Beta  occ. eigenvalues --   -7.15619  -7.15611  -7.15610  -7.15607  -3.43039
  Beta  occ. eigenvalues --   -2.19392  -2.19265  -2.19193  -1.12727  -1.04093
  Beta  occ. eigenvalues --   -1.00242  -0.93403  -0.89976  -0.87704  -0.83039
  Beta  occ. eigenvalues --   -0.81748  -0.80365  -0.78408  -0.76655  -0.76549
  Beta  occ. eigenvalues --   -0.75438  -0.75196  -0.74630  -0.74604  -0.69463
  Beta  occ. eigenvalues --   -0.67103  -0.66534  -0.65899  -0.62524  -0.61820
  Beta  occ. eigenvalues --   -0.61070  -0.59021  -0.58363  -0.57385  -0.54363
  Beta  occ. eigenvalues --   -0.54108  -0.52565  -0.51932  -0.50881  -0.49794
  Beta  occ. eigenvalues --   -0.49792  -0.48682  -0.48318  -0.47573  -0.46841
  Beta  occ. eigenvalues --   -0.46362  -0.45397  -0.44488  -0.43927  -0.43801
  Beta  occ. eigenvalues --   -0.43422  -0.42753  -0.41952  -0.40792  -0.40317
  Beta  occ. eigenvalues --   -0.39814  -0.39579  -0.38610  -0.38517  -0.38034
  Beta  occ. eigenvalues --   -0.36937  -0.36471  -0.36424  -0.36019  -0.35825
  Beta  occ. eigenvalues --   -0.34420  -0.33385  -0.32436  -0.32128  -0.32016
  Beta  occ. eigenvalues --   -0.31610  -0.30485  -0.29810  -0.29724  -0.29344
  Beta  occ. eigenvalues --   -0.29114  -0.28723  -0.27387  -0.27305  -0.26511
  Beta  occ. eigenvalues --   -0.26220  -0.25971
  Beta virt. eigenvalues --   -0.17047  -0.10461  -0.10401  -0.09661  -0.09159
  Beta virt. eigenvalues --   -0.08208  -0.07076  -0.04941  -0.03400  -0.03157
  Beta virt. eigenvalues --   -0.03022  -0.02457  -0.01743  -0.01239  -0.00317

 Mulliken charges and spin densities:
               1          2
     1  C   -0.398420   0.005403
     2  C    3.084314  -0.012665
     3  C   -0.527668   0.002536
     4  C   -0.005949  -0.001958
     5  C    0.265645   0.003079
     6  C   -0.076647  -0.001213
     7  C   -0.991430   0.007243
     8  C   -0.047286   0.000390
     9  C    0.633473  -0.002158
    10  C    0.919244   0.002628
    11  C    0.161609   0.008063
    12  C    0.338152  -0.006601
    13  O   -0.345711   0.201043
    14  Fe   0.687162   4.057646
    15  Cl  -0.462569   0.256673
    16  Cl  -0.514470   0.221697
    17  Cl  -0.535322   0.227753
    18  H   -0.358415  -0.000020
    19  H   -0.173917   0.000009
    20  H   -0.147565  -0.000045
    21  H   -0.158353   0.000005
    22  H   -0.273715  -0.000052
    23  H   -0.129297   0.000378
    24  C    0.665251  -0.003807
    25  H   -0.156250   0.000068
    26  H   -0.013793   0.001739
    27  H   -0.125883   0.000362
    28  H   -0.118459   0.000093
    29  H   -0.270091   0.003356
    30  O   -0.611439   0.008042
    31  O   -0.619717  -0.000666
    32  C    0.475178  -0.002208
    33  C    0.096601  -0.000129
    34  H   -0.025847  -0.000659
    35  H   -0.062909   0.000023
    36  H   -0.027017   0.000017
    37  H   -0.009697   0.000026
    38  H    0.051532  -0.000206
    39  H   -0.177420   0.008641
    40  C    1.311075   0.003469
    41  C   -0.081660   0.002932
    42  C   -0.296578   0.001157
    43  C   -0.029534   0.005111
    44  H   -0.222501   0.001679
    45  C   -0.111371  -0.000940
    46  H   -0.214312   0.000053
    47  C    0.185123   0.001911
    48  H   -0.192591   0.000021
    49  H   -0.178605   0.000125
    50  H   -0.181950  -0.000044
 Sum of Mulliken charges =  -0.00000   5.00000

 Dipole moment (field-independent basis, Debye):
    X=             13.0133    Y=              7.7027    Z=              2.4885  Tot=             15.3255
 Quadrupole moment (field-independent basis, Debye-Ang):
   XX=           -196.5520   YY=           -200.2427   ZZ=           -187.3399
   XY=             -0.5095   XZ=             -1.5732   YZ=            -12.3844

  Exact polarizability: 382.444 -18.229 357.982 -28.784 -17.831 316.670
 Approx polarizability: 588.897 -47.080 561.494 -68.927 -39.305 553.500

 ******    1 imaginary frequencies (negative Signs) ******

                      1                      2                      3
                      A                      A                      A
 Frequencies --    -42.5359                17.6687                32.7109
 Red. masses --      8.5315                 6.5678                 5.7025
 Frc consts  --      0.0091                 0.0012                 0.0036
 IR Inten    --     18.1244                 0.4527                 1.1375

                      4                      5                      6
                      A                      A                      A
 Frequencies --     37.7657                45.0525                45.6835
 Red. masses --      7.6846                 5.9479                 7.6027
 Frc consts  --      0.0065                 0.0071                 0.0093
 IR Inten    --      1.6965                 1.4125                 0.4083

                      7                      8                      9
                      A                      A                      A
 Frequencies --     55.4829                67.7280                70.5425
 Red. masses --      6.9021                 7.2230                 4.6033
 Frc consts  --      0.0125                 0.0195                 0.0135
 IR Inten    --      4.8155                 0.6557                 1.9577

                     10                     11                     12
                      A                      A                      A
 Frequencies --     81.8958                87.3672                94.3500
 Red. masses --      6.2382                 6.1406                 4.9210
 Frc consts  --      0.0247                 0.0276                 0.0258
 IR Inten    --      1.1524                 0.6050                 5.2980

                     13                     14                     15
                      A                      A                      A
 Frequencies --     99.8670               110.4179               113.0854
 Red. masses --      5.4866                 5.1800                 5.8416
 Frc consts  --      0.0322                 0.0372                 0.0440
 IR Inten    --      1.4541                 1.3880                 1.9740

                     16                     17                     18
                      A                      A                      A
 Frequencies --    124.7443               130.4645               139.2299
 Red. masses --      9.9092                 7.9565                 4.6825
 Frc consts  --      0.0909                 0.0798                 0.0535
 IR Inten    --      0.2527                 1.7711                 2.3055

                     19                     20                     21
                      A                      A                      A
 Frequencies --    171.5338               184.7659               189.4223
 Red. masses --      3.0816                 2.8980                 4.9959
 Frc consts  --      0.0534                 0.0583                 0.1056
 IR Inten    --      5.9783                 2.5553                 1.7630

                     22                     23                     24
                      A                      A                      A
 Frequencies --    221.2304               226.0998               243.1519
 Red. masses --      3.7775                 4.1764                 2.5609
 Frc consts  --      0.1089                 0.1258                 0.0892
 IR Inten    --      1.8615                 7.0093                 3.3568

                     25                     26                     27
                      A                      A                      A
 Frequencies --    266.5005               274.1164               298.1991
 Red. masses --      3.5242                 2.5827                 3.2362
 Frc consts  --      0.1475                 0.1143                 0.1695
 IR Inten    --      6.0258                 4.7622                13.3564

                     28                     29                     30
                      A                      A                      A
 Frequencies --    321.2486               335.2556               345.6148
 Red. masses --      4.6965                14.7953                 7.1967
 Frc consts  --      0.2856                 0.9798                 0.5065
 IR Inten    --     25.1836                 1.5252                 5.9392

                     31                     32                     33
                      A                      A                      A
 Frequencies --    368.5711               380.1931               387.0259
 Red. masses --      5.9849                36.1540                33.5911
 Frc consts  --      0.4790                 3.0790                 2.9645
 IR Inten    --     50.9168                70.6670                93.5130

                     34                     35                     36
                      A                      A                      A
 Frequencies --    391.9714               402.2685               408.4973
 Red. masses --      5.5573                 3.6298                 2.9346
 Frc consts  --      0.5031                 0.3461                 0.2885
 IR Inten    --     32.8037                10.4330                 1.0176

                     37                     38                     39
                      A                      A                      A
 Frequencies --    415.1805               434.9395               488.4193
 Red. masses --      2.9460                 3.7661                 3.5392
 Frc consts  --      0.2992                 0.4198                 0.4974
 IR Inten    --      1.7324                 8.4368                 5.4959

                     40                     41                     42
                      A                      A                      A
 Frequencies --    506.1003               528.4278               575.0158
 Red. masses --      4.6748                 3.7097                 4.5327
 Frc consts  --      0.7055                 0.6103                 0.8830
 IR Inten    --     59.7878                12.6219                21.3006

                     43                     44                     45
                      A                      A                      A
 Frequencies --    617.4211               627.9412               629.7649
 Red. masses --      4.7577                 5.7981                 4.4158
 Frc consts  --      1.0686                 1.3470                 1.0318
 IR Inten    --      8.6836                 2.9607                 9.1126

                     46                     47                     48
                      A                      A                      A
 Frequencies --    661.9738               674.8528               679.7520
 Red. masses --      3.9698                 1.7952                 3.3590
 Frc consts  --      1.0249                 0.4817                 0.9145
 IR Inten    --      5.5331                48.3932                 9.9030

                     49                     50                     51
                      A                      A                      A
 Frequencies --    696.4050               706.4532               741.4013
 Red. masses --      3.6890                 1.8733                 1.9017
 Frc consts  --      1.0541                 0.5508                 0.6159
 IR Inten    --      4.3760                29.5888                61.8583

                     52                     53                     54
                      A                      A                      A
 Frequencies --    766.1562               791.2305               812.4882
 Red. masses --      3.8683                 2.2753                 1.2146
 Frc consts  --      1.3379                 0.8393                 0.4724
 IR Inten    --     26.9365                10.8619                 0.6660

                     55                     56                     57
                      A                      A                      A
 Frequencies --    827.0578               841.3517               843.9639
 Red. masses --      1.2824                 2.6363                 3.7745
 Frc consts  --      0.5168                 1.0995                 1.5840
 IR Inten    --      1.9990                19.3982                 0.4540

                     58                     59                     60
                      A                      A                      A
 Frequencies --    851.9009               861.5692               884.4324
 Red. masses --      1.2582                 2.9266                 3.2958
 Frc consts  --      0.5380                 1.2800                 1.5189
 IR Inten    --      0.3866                10.1645                15.4119

                     61                     62                     63
                      A                      A                      A
 Frequencies --    898.8505               924.9514               936.6888
 Red. masses --      2.1950                 3.4055                 1.6049
 Frc consts  --      1.0449                 1.7166                 0.8297
 IR Inten    --     14.6235                 3.1081                 0.6741

                     64                     65                     66
                      A                      A                      A
 Frequencies --    958.7210               962.7396               983.3580
 Red. masses --      2.1780                 1.6086                 1.3664
 Frc consts  --      1.1795                 0.8784                 0.7785
 IR Inten    --      8.8164                 8.0844                 1.0323

                     67                     68                     69
                      A                      A                      A
 Frequencies --    987.5997               990.4434               997.4345
 Red. masses --      1.4100                 2.1304                 2.7103
 Frc consts  --      0.8103                 1.2313                 1.5887
 IR Inten    --      0.5659                21.0261                17.4865

                     70                     71                     72
                      A                      A                      A
 Frequencies --    999.8688              1002.1809              1010.6042
 Red. masses --      1.4711                 4.6520                 4.1261
 Frc consts  --      0.8665                 2.7529                 2.4829
 IR Inten    --      0.4549                 8.0589                 2.0154

                     73                     74                     75
                      A                      A                      A
 Frequencies --   1015.9489              1037.7675              1043.9350
 Red. masses --      1.3666                 2.9218                 2.1975
 Frc consts  --      0.8311                 1.8540                 1.4110
 IR Inten    --      0.3827                57.4014                12.0350

                     76                     77                     78
                      A                      A                      A
 Frequencies --   1047.6020              1053.0573              1066.7824
 Red. masses --      2.1681                 2.2273                 2.3286
 Frc consts  --      1.4019                 1.4552                 1.5613
 IR Inten    --      5.8477                 5.1508                65.6960

                     79                     80                     81
                      A                      A                      A
 Frequencies --   1087.1036              1105.2683              1113.0074
 Red. masses --      2.6218                 1.6489                 1.8585
 Frc consts  --      1.8255                 1.1868                 1.3565
 IR Inten    --     27.2789                13.2218                18.9411

                     82                     83                     84
                      A                      A                      A
 Frequencies --   1129.5519              1147.5031              1160.5111
 Red. masses --      2.1320                 1.6183                 1.7627
 Frc consts  --      1.6027                 1.2555                 1.3987
 IR Inten    --      6.6965                 1.7921                67.0204

                     85                     86                     87
                      A                      A                      A
 Frequencies --   1171.6922              1176.7677              1181.5358
 Red. masses --      1.0909                 1.5759                 1.3927
 Frc consts  --      0.8824                 1.2857                 1.1455
 IR Inten    --      0.6184                35.1930                49.6570

                     88                     89                     90
                      A                      A                      A
 Frequencies --   1184.1735              1190.4619              1194.6075
 Red. masses --      1.1254                 1.1707                 1.4040
 Frc consts  --      0.9298                 0.9775                 1.1805
 IR Inten    --      5.4454                 0.4665                16.8325

                     91                     92                     93
                      A                      A                      A
 Frequencies --   1214.9201              1223.7491              1239.6743
 Red. masses --      1.1591                 2.3567                 1.3186
 Frc consts  --      1.0080                 2.0794                 1.1939
 IR Inten    --     29.2565                35.5261                 6.9662

                     94                     95                     96
                      A                      A                      A
 Frequencies --   1263.8754              1266.7924              1285.1177
 Red. masses --      1.9963                 2.0654                 1.4489
 Frc consts  --      1.8788                 1.9528                 1.4098
 IR Inten    --     72.6290               122.0031                 7.3172

                     97                     98                     99
                      A                      A                      A
 Frequencies --   1292.3640              1301.9523              1318.0543
 Red. masses --      1.2931                 1.4847                 1.5989
 Frc consts  --      1.2725                 1.4828                 1.6366
 IR Inten    --     51.9361                23.4577                17.9939

                    100                    101                    102
                      A                      A                      A
 Frequencies --   1328.3436              1354.0468              1355.2939
 Red. masses --      1.5274                 1.5709                 1.3777
 Frc consts  --      1.5879                 1.6969                 1.4909
 IR Inten    --     13.8454                 7.3144                19.3149

                    103                    104                    105
                      A                      A                      A
 Frequencies --   1359.4075              1369.5245              1381.5841
 Red. masses --      1.5004                 3.0390                 1.3336
 Frc consts  --      1.6337                 3.3583                 1.4998
 IR Inten    --     16.4811                12.7683                22.8811

                    106                    107                    108
                      A                      A                      A
 Frequencies --   1389.7963              1414.4033              1442.2106
 Red. masses --      5.7680                 1.4153                 2.7503
 Frc consts  --      6.5641                 1.6682                 3.3705
 IR Inten    --     13.8808                19.9996               196.5517

                    109                    110                    111
                      A                      A                      A
 Frequencies --   1469.5718              1473.7655              1473.9689
 Red. masses --      2.3710                 1.0411                 2.3159
 Frc consts  --      3.0169                 1.3322                 2.9644
 IR Inten    --     41.1914                 1.9680                23.6135

                    112                    113                    114
                      A                      A                      A
 Frequencies --   1484.9171              1490.0360              1499.9774
 Red. masses --      1.0950                 1.0528                 1.0999
 Frc consts  --      1.4225                 1.3772                 1.4580
 IR Inten    --      5.6694                 2.3746                 6.6722

                    115                    116                    117
                      A                      A                      A
 Frequencies --   1510.1570              1517.0218              1535.4215
 Red. masses --      1.0877                 2.2939                 2.9112
 Frc consts  --      1.4615                 3.1103                 4.0436
 IR Inten    --      9.6051                 2.5728                95.1414

                    118                    119                    120
                      A                      A                      A
 Frequencies --   1600.8768              1623.9288              1643.9342
 Red. masses --      4.5118                 5.8667                 5.7343
 Frc consts  --      6.8127                 9.1154                 9.1306
 IR Inten    --     11.6068                 7.4488                81.8485

                    121                    122                    123
                      A                      A                      A
 Frequencies --   1644.8397              1771.5903              2978.2595
 Red. masses --      5.6662                12.0678                 1.0783
 Frc consts  --      9.0320                22.3154                 5.6352
 IR Inten    --    121.6015               358.8860                15.0622

                    124                    125                    126
                      A                      A                      A
 Frequencies --   2995.5901              3033.9759              3040.1772
 Red. masses --      1.0829                 1.0374                 1.0678
 Frc consts  --      5.7256                 5.6261                 5.8149
 IR Inten    --     14.0635                25.7988                36.5381

                    127                    128                    129
                      A                      A                      A
 Frequencies --   3078.6802              3097.6851              3104.4662
 Red. masses --      1.0589                 1.0627                 1.0855
 Frc consts  --      5.9134                 6.0083                 6.1638
 IR Inten    --     14.6779                12.9638                13.0722

                    130                    131                    132
                      A                      A                      A
 Frequencies --   3105.3316              3111.9909              3130.2110
 Red. masses --      1.0998                 1.0970                 1.1036
 Frc consts  --      6.2487                 6.2594                 6.3712
 IR Inten    --     23.4577                11.2309                 3.2797

                    133                    134                    135
                      A                      A                      A
 Frequencies --   3145.7092              3153.5807              3153.7533
 Red. masses --      1.1075                 1.1056                 1.0896
 Frc consts  --      6.4571                 6.4781                 6.3852
 IR Inten    --      4.6081                 6.3115                 2.4063

                    136                    137                    138
                      A                      A                      A
 Frequencies --   3171.0598              3182.2257              3182.2657
 Red. masses --      1.0870                 1.0878                 1.0925
 Frc consts  --      6.4401                 6.4904                 6.5184
 IR Inten    --      1.2525                 0.9390                14.9797

                    139                    140                    141
                      A                      A                      A
 Frequencies --   3193.8912              3200.2773              3207.5434
 Red. masses --      1.0977                 1.0925                 1.0958
 Frc consts  --      6.5971                 6.5923                 6.6425
 IR Inten    --     17.5374                 3.5410                 3.4486

                    142                    143                    144
                      A                      A                      A
 Frequencies --   3214.6185              3251.6349              3251.7495
 Red. masses --      1.0931                 1.0925                 1.0923
 Frc consts  --      6.6556                 6.8059                 6.8050
 IR Inten    --      7.5814                 5.9265                 1.1833

 - Thermochemistry -
 -------------------
 Temperature   298.150 Kelvin.  Pressure   1.00000 Atm.
 Atom     1 has atomic number  6 and mass  12.00000

 Molecular mass:   482.99839 amu.
 Principal axes and moments of inertia in atomic units:
                           1         2         3
     Eigenvalues --  ******************************
           X            0.99237  -0.12319  -0.00485
           Y            0.12295   0.99181  -0.03455
           Z            0.00907   0.03369   0.99939
 This molecule is an asymmetric top.
 Rotational symmetry number  1.
 Warning -- assumption of classical behavior for rotation
           may cause significant error
 Rotational temperatures (Kelvin)      0.00782     0.00680     0.00526
 Rotational constants (GHZ):           0.16290     0.14179     0.10963
    1 imaginary frequencies ignored.
 Zero-point vibrational energy    1013957.4 (Joules/Mol)
                                  242.34163 (Kcal/Mol)
 Warning -- explicit consideration of  42 degrees of freedom as
           vibrations may cause significant error
 Vibrational temperatures:     25.42    47.06    54.34    64.82    65.73
          (Kelvin)             79.83    97.45   101.49   117.83   125.70
                              135.75   143.69   158.87   162.70   179.48
                              187.71   200.32   246.80   265.84   272.54
                              318.30   325.31   349.84   383.43   394.39
                              429.04   462.21   482.36   497.26   530.29
                              547.01   556.84   563.96   578.77   587.74
                              597.35   625.78   702.73   728.17   760.29
                              827.32   888.33   903.47   906.09   952.43
                              970.96   978.01  1001.97  1016.43  1066.71
                             1102.33  1138.40  1168.99  1189.95  1210.52
                             1214.28  1225.70  1239.61  1272.50  1293.25
                             1330.80  1347.69  1379.39  1385.17  1414.83
                             1420.94  1425.03  1435.09  1438.59  1441.91
                             1454.03  1461.72  1493.12  1501.99  1507.27
                             1515.11  1534.86  1564.10  1590.23  1601.37
                             1625.17  1651.00  1669.72  1685.80  1693.11
                             1699.97  1703.76  1712.81  1718.77  1748.00
                             1760.70  1783.61  1818.43  1822.63  1849.00
                             1859.42  1873.22  1896.39  1911.19  1948.17
                             1949.97  1955.88  1970.44  1987.79  1999.61
                             2035.01  2075.02  2114.39  2120.42  2120.71
                             2136.46  2143.83  2158.13  2172.78  2182.66
                             2209.13  2303.30  2336.47  2365.25  2366.56
                             2548.92  4285.05  4309.99  4365.21  4374.14
                             4429.53  4456.88  4466.63  4467.88  4477.46
                             4503.68  4525.97  4537.30  4537.55  4562.45
                             4578.51  4578.57  4595.30  4604.49  4614.94
                             4625.12  4678.38  4678.54

 Zero-point correction=                           0.386196 (Hartree/Particle)
 Thermal correction to Energy=                    0.414291
 Thermal correction to Enthalpy=                  0.415235
 Thermal correction to Gibbs Free Energy=         0.323230
 Sum of electronic and zero-point Energies=          -3683.601653
 Sum of electronic and thermal Energies=             -3683.573559
 Sum of electronic and thermal Enthalpies=           -3683.572615
 Sum of electronic and thermal Free Energies=        -3683.664619

                     E (Thermal)             CV                S
                      KCal/Mol        Cal/Mol-Kelvin    Cal/Mol-Kelvin
 Total                  259.971            103.389            193.639
 Electronic               0.000              0.000              3.561
 Translational            0.889              2.981             44.412
 Rotational               0.889              2.981             36.094
 Vibrational            258.194             97.427            109.573
 Vibration     1          0.593              1.986              6.880
 Vibration     2          0.594              1.983              5.658
 Vibration     3          0.594              1.982              5.373
 Vibration     4          0.595              1.979              5.024
 Vibration     5          0.595              1.979              4.996
 Vibration     6          0.596              1.975              4.612
 Vibration     7          0.598              1.970              4.218
 Vibration     8          0.598              1.968              4.138
 Vibration     9          0.600              1.962              3.845
 Vibration    10          0.601              1.958              3.718
 Vibration    11          0.603              1.953              3.568
 Vibration    12          0.604              1.949              3.457
 Vibration    13          0.606              1.941              3.262
 Vibration    14          0.607              1.939              3.215
 Vibration    15          0.610              1.928              3.026
 Vibration    16          0.612              1.923              2.939
 Vibration    17          0.615              1.914              2.814
 Vibration    18          0.626              1.878              2.419
 Vibration    19          0.631              1.861              2.280
 Vibration    20          0.633              1.854              2.233
 Vibration    21          0.648              1.809              1.949
 Vibration    22          0.650              1.801              1.910
 Vibration    23          0.659              1.774              1.780
 Vibration    24          0.672              1.735              1.619
 Vibration    25          0.676              1.721              1.570
 Vibration    26          0.691              1.677              1.427
 Vibration    27          0.707              1.633              1.304
 Vibration    28          0.716              1.605              1.235
 Vibration    29          0.724              1.584              1.186
 Vibration    30          0.741              1.537              1.086
 Vibration    31          0.750              1.512              1.038
 Vibration    32          0.755              1.498              1.012
 Vibration    33          0.759              1.487              0.993
 Vibration    34          0.768              1.465              0.954
 Vibration    35          0.773              1.452              0.932
 Vibration    36          0.779              1.437              0.908
 Vibration    37          0.796              1.394              0.843
 Vibration    38          0.844              1.276              0.688
 Vibration    39          0.861              1.236              0.643
 Vibration    40          0.883              1.187              0.591
 Vibration    41          0.931              1.085              0.495
 Vibration    42          0.977              0.995              0.421

 Optimization completed.
    -- Stationary point found.
 Normal termination of Gaussian 16 at Mon Jun 14 09:52:08 2021.
