 Gaussian 16, Revision A.03,
 Gaussian 16:  ES64L-G16RevA.03 25-Dec-2016

 ----------------------------------------------------------------------
 #p opt=(calcfc,ts,noeigentest,maxstep=5) freq=noraman b3lyp pop=none e
 mpiricaldispersion=gd3bj jul-cc-pvdz
 ----------------------------------------------------------------------

 -----
 title
 -----
 Symbolic Z-matrix:
 Charge =  0 Multiplicity = 6

 SCF Done:  E(UB3LYP) =  -3683.99024445     A.U. after   25 cycles
 Optimization completed.
    -- Stationary point found.
 Normal termination of Gaussian 16 at Sun Jun  6 18:11:56 2021.

 ----------------------------------------------------------------------
 #P Geom=AllCheck Guess=TCheck SCRF=Check GenChk UB3LYP/Jul-CC-pVDZ Fre
 q
 ----------------------------------------------------------------------

 Structure from the checkpoint file:  "/scratch/kwaneu.2864259.bmbhpcps002/Gau-19473.chk"
 -----
 title
 -----
 Charge =  0 Multiplicity = 6

                         Standard orientation:
 ---------------------------------------------------------------------
 Center     Atomic      Atomic             Coordinates (Angstroms)
 Number     Number       Type             X           Y           Z
 ---------------------------------------------------------------------
      1          6           0        2.241171    1.947788    0.631379
      2          6           0        1.229475    1.162430    0.054017
      3          6           0        0.775163    1.472813   -1.233945
      4          6           0        1.322993    2.553367   -1.932503
      5          6           0        2.321108    3.336597   -1.350781
      6          6           0        2.782139    3.027260   -0.064009
      7          6           0        0.595268    0.022117    0.822593
      8          6           0        1.579320   -1.089669    1.356869
      9          6           0        1.562499   -1.009524    2.886469
     10          6           0        0.144666   -0.527406    3.214471
     11          6           0       -0.088347    0.585017    2.189001
     12          6           0       -1.461480    0.795932    1.727160
     13          8           0       -0.450480   -0.519457    0.080265
     14         26           0       -1.447045   -1.912538   -0.598477
     15         17           0       -0.311013   -3.802954   -0.463385
     16         17           0       -2.013040   -1.250804   -2.642081
     17         17           0       -3.268264   -1.958933    0.749783
     18          1           0       -0.002707    0.858354   -1.681827
     19          1           0        0.962976    2.780368   -2.936583
     20          1           0        2.747370    4.179796   -1.895747
     21          1           0        3.571779    3.624333    0.393238
     22          1           0        2.623825    1.707127    1.622862
     23          1           0        1.127187   -2.029896    1.019063
     24          6           0        2.959672   -1.016119    0.741357
     25          1           0        1.802818   -1.973939    3.349337
     26          1           0        2.315248   -0.285707    3.228853
     27          1           0       -0.581920   -1.336650    3.054492
     28          1           0        0.035388   -0.171903    4.246908
     29          1           0        0.419719    1.510083    2.477561
     30          8           0        2.912829   -1.393873   -0.545583
     31          8           0        3.967903   -0.664728    1.321340
     32          6           0        4.146853   -1.318827   -1.306345
     33          6           0        4.360797    0.078034   -1.861444
     34          1           0        4.975625   -1.630542   -0.659476
     35          1           0        4.006199   -2.056653   -2.104671
     36          1           0        5.250227    0.079738   -2.508446
     37          1           0        3.494961    0.396592   -2.456097
     38          1           0        4.517018    0.801760   -1.052905
     39          6           0       -1.944363    1.916298    1.027524
     40          6           0       -3.225182    1.805722    0.412408
     41          6           0       -1.166016    3.090316    0.822691
     42          6           0       -3.701025    2.831132   -0.387766
     43          1           0       -3.788848    0.880733    0.540897
     44          6           0       -1.658022    4.112972    0.027890
     45          1           0       -0.188600    3.184700    1.287951
     46          6           0       -2.918138    3.981177   -0.575906
     47          1           0       -4.668322    2.739885   -0.880243
     48          1           0       -1.063759    5.010524   -0.137763
     49          1           0       -3.294270    4.786940   -1.208475
     50          1           0       -2.162690   -0.033975    1.853121
 ---------------------------------------------------------------------

 SCF Done:  E(UB3LYP) =  -3683.99024445     A.U. after    2 cycles

 Isotropic polarizability for W=    0.000000      345.86 Bohr**3.
 End of Minotr F.D. properties file   721 does not exist.

 ******    1 imaginary frequencies (negative Signs) ******

                      1                      2                      3
                      A                      A                      A
 Frequencies --   -190.8626                10.1224                21.8876
 Red. masses --     11.2063                16.7780                 5.4571
 Frc consts  --      0.2405                 0.0010                 0.0015
 IR Inten    --     59.3187                 0.4309                 1.0877

                      4                      5                      6
                      A                      A                      A
 Frequencies --     29.3263                34.9124                39.1011
 Red. masses --      7.7824                 3.9920                 4.4107
 Frc consts  --      0.0039                 0.0029                 0.0040
 IR Inten    --      1.4547                 0.5174                 0.7738

                      7                      8                      9
                      A                      A                      A
 Frequencies --     46.3345                70.5538                73.5770
 Red. masses --      5.5605                 4.9228                 5.1897
 Frc consts  --      0.0070                 0.0144                 0.0166
 IR Inten    --      1.2716                 0.2799                 1.5480

                     10                     11                     12
                      A                      A                      A
 Frequencies --     75.8415                88.8340                90.4957
 Red. masses --      5.5635                 6.3366                12.6401
 Frc consts  --      0.0189                 0.0295                 0.0610
 IR Inten    --      1.0131                 0.5079                 1.8139

                     13                     14                     15
                      A                      A                      A
 Frequencies --     96.6235               104.4704               109.7148
 Red. masses --      6.4243                 6.5757                 4.2460
 Frc consts  --      0.0353                 0.0423                 0.0301
 IR Inten    --      0.0838                 3.4426                 0.5946

                     16                     17                     18
                      A                      A                      A
 Frequencies --    119.2293               127.7332               134.0666
 Red. masses --     18.2332                11.0910                 6.1434
 Frc consts  --      0.1527                 0.1066                 0.0651
 IR Inten    --      1.3753                 4.4833                 5.4989

                     19                     20                     21
                      A                      A                      A
 Frequencies --    154.4372               163.2329               194.5754
 Red. masses --      5.7661                 3.5631                 4.1327
 Frc consts  --      0.0810                 0.0559                 0.0922
 IR Inten    --      2.8980                 2.7777                 4.9599

                     22                     23                     24
                      A                      A                      A
 Frequencies --    207.2985               224.2877               240.1205
 Red. masses --      2.4129                 2.4773                 3.3234
 Frc consts  --      0.0611                 0.0734                 0.1129
 IR Inten    --      4.0395                 5.1689                 7.1156

                     25                     26                     27
                      A                      A                      A
 Frequencies --    257.3681               278.4945               306.1795
 Red. masses --      2.6831                 3.9037                 5.2263
 Frc consts  --      0.1047                 0.1784                 0.2887
 IR Inten    --      1.8620                 4.7069                15.3170

                     28                     29                     30
                      A                      A                      A
 Frequencies --    329.4719               333.5483               346.8488
 Red. masses --      7.7273                 4.7006                 4.2256
 Frc consts  --      0.4942                 0.3081                 0.2995
 IR Inten    --     28.6259                18.2697                 0.7460

                     31                     32                     33
                      A                      A                      A
 Frequencies --    357.1154               367.1741               388.9623
 Red. masses --      5.9059                24.2418                 3.2542
 Frc consts  --      0.4438                 1.9256                 0.2901
 IR Inten    --     19.6320                68.3028                11.0002

                     34                     35                     36
                      A                      A                      A
 Frequencies --    393.8062               396.6691               413.2234
 Red. masses --      3.8841                38.2766                 3.0150
 Frc consts  --      0.3549                 3.5485                 0.3033
 IR Inten    --      7.2839                80.9840                 2.3227

                     37                     38                     39
                      A                      A                      A
 Frequencies --    424.2416               453.6654               475.7882
 Red. masses --      3.9477                 3.5050                 3.3221
 Frc consts  --      0.4186                 0.4250                 0.4431
 IR Inten    --      4.3921                 5.7654                 3.0310

                     40                     41                     42
                      A                      A                      A
 Frequencies --    498.5794               543.7387               550.5729
 Red. masses --      3.4893                 3.5216                 2.7061
 Frc consts  --      0.5110                 0.6134                 0.4833
 IR Inten    --     32.7715                 0.8184                33.4452

                     43                     44                     45
                      A                      A                      A
 Frequencies --    596.6457               607.3188               620.8912
 Red. masses --      4.6206                 3.8108                 4.7264
 Frc consts  --      0.9691                 0.8281                 1.0735
 IR Inten    --      4.0333                24.3016                 7.3558

                     46                     47                     48
                      A                      A                      A
 Frequencies --    627.2061               630.6176               670.6591
 Red. masses --      5.6718                 5.3113                 1.6688
 Frc consts  --      1.3146                 1.2445                 0.4422
 IR Inten    --     10.0887                 6.0007                43.4142

                     49                     50                     51
                      A                      A                      A
 Frequencies --    699.7373               709.0580               725.9880
 Red. masses --      5.1305                 1.8890                 2.6951
 Frc consts  --      1.4801                 0.5595                 0.8369
 IR Inten    --     45.1858                17.5606                66.0615

                     52                     53                     54
                      A                      A                      A
 Frequencies --    759.7772               773.7855               782.1852
 Red. masses --      2.1351                 1.7854                 3.7306
 Frc consts  --      0.7262                 0.6298                 1.3448
 IR Inten    --     21.1100                28.6131                21.6288

                     55                     56                     57
                      A                      A                      A
 Frequencies --    807.6915               838.9169               854.2184
 Red. masses --      1.4361                 1.2655                 3.8478
 Frc consts  --      0.5520                 0.5248                 1.6542
 IR Inten    --     10.0575                 3.5090                 3.4259

                     58                     59                     60
                      A                      A                      A
 Frequencies --    856.7902               863.5350               875.1433
 Red. masses --      1.2674                 2.8529                 3.1775
 Frc consts  --      0.5482                 1.2534                 1.4338
 IR Inten    --      0.3153                 7.1455                36.6184

                     61                     62                     63
                      A                      A                      A
 Frequencies --    888.2859               921.3062               941.5492
 Red. masses --      1.9310                 2.3307                 1.7408
 Frc consts  --      0.8977                 1.1656                 0.9092
 IR Inten    --      2.9673                 5.3894                 0.5780

                     64                     65                     66
                      A                      A                      A
 Frequencies --    951.6668               964.5222               982.2657
 Red. masses --      1.8001                 1.5233                 1.8726
 Frc consts  --      0.9605                 0.8350                 1.0645
 IR Inten    --      6.4204                 1.0811                12.8922

                     67                     68                     69
                      A                      A                      A
 Frequencies --    988.3918               995.8712              1001.0193
 Red. masses --      1.3795                 1.7945                 3.4020
 Frc consts  --      0.7940                 1.0486                 2.0085
 IR Inten    --      0.4286                 0.8726                 4.3028

                     70                     71                     72
                      A                      A                      A
 Frequencies --   1003.2121              1007.9250              1013.5446
 Red. masses --      1.6243                 2.2083                 3.1940
 Frc consts  --      0.9632                 1.3218                 1.9332
 IR Inten    --     14.7566                11.7935                12.2165

                     73                     74                     75
                      A                      A                      A
 Frequencies --   1016.2721              1022.3230              1041.5612
 Red. masses --      1.6059                 1.6064                 2.1927
 Frc consts  --      0.9772                 0.9892                 1.4015
 IR Inten    --     10.0103                15.9435                 0.6953

                     76                     77                     78
                      A                      A                      A
 Frequencies --   1045.5179              1053.1145              1056.8938
 Red. masses --      3.0560                 2.8278                 2.2581
 Frc consts  --      1.9682                 1.8478                 1.4861
 IR Inten    --     15.4812                27.2898                19.3267

                     79                     80                     81
                      A                      A                      A
 Frequencies --   1082.9179              1104.0895              1111.6240
 Red. masses --      2.9156                 1.6806                 1.7282
 Frc consts  --      2.0145                 1.2070                 1.2582
 IR Inten    --     70.9033                22.0977                17.8801

                     82                     83                     84
                      A                      A                      A
 Frequencies --   1113.6403              1125.4303              1154.0600
 Red. masses --      1.9262                 2.8047                 1.8195
 Frc consts  --      1.4075                 2.0930                 1.4278
 IR Inten    --     19.9779                22.1193                14.6212

                     85                     86                     87
                      A                      A                      A
 Frequencies --   1165.9419              1172.8943              1182.0807
 Red. masses --      1.7207                 1.0845                 1.3241
 Frc consts  --      1.3782                 0.8790                 1.0901
 IR Inten    --    165.0272                 0.3027                 3.4625

                     88                     89                     90
                      A                      A                      A
 Frequencies --   1184.5904              1189.4108              1200.0479
 Red. masses --      1.3506                 1.5794                 1.1876
 Frc consts  --      1.1167                 1.3165                 1.0077
 IR Inten    --     12.5787                 8.6074                17.7887

                     91                     92                     93
                      A                      A                      A
 Frequencies --   1204.5000              1215.4963              1226.5794
 Red. masses --      1.1736                 2.0997                 1.7185
 Frc consts  --      1.0032                 1.8278                 1.5233
 IR Inten    --     50.8403                53.8847               115.1883

                     94                     95                     96
                      A                      A                      A
 Frequencies --   1239.2097              1283.3162              1303.0387
 Red. masses --      2.2767                 1.4866                 1.4187
 Frc consts  --      2.0599                 1.4425                 1.4193
 IR Inten    --     63.7345                16.5463                31.6994

                     97                     98                     99
                      A                      A                      A
 Frequencies --   1313.3676              1317.4471              1323.4861
 Red. masses --      1.3725                 1.2681                 1.4591
 Frc consts  --      1.3949                 1.2968                 1.5058
 IR Inten    --     23.4748                28.9844                79.1457

                    100                    101                    102
                      A                      A                      A
 Frequencies --   1336.0159              1356.4619              1363.3906
 Red. masses --      1.5467                 1.4852                 4.0990
 Frc consts  --      1.6266                 1.6101                 4.4892
 IR Inten    --      7.7642                41.1673                 2.8983

                    103                    104                    105
                      A                      A                      A
 Frequencies --   1370.1086              1371.8889              1393.3147
 Red. masses --      1.4669                 1.3205                 1.5203
 Frc consts  --      1.6224                 1.4643                 1.7389
 IR Inten    --     12.7296                 6.3504                44.6725

                    106                    107                    108
                      A                      A                      A
 Frequencies --   1399.7335              1412.5862              1462.1102
 Red. masses --      5.2795                 1.5181                 2.2275
 Frc consts  --      6.0944                 1.7848                 2.8056
 IR Inten    --     45.5545                21.0708                36.9245

                    109                    110                    111
                      A                      A                      A
 Frequencies --   1470.8820              1476.5786              1478.3290
 Red. masses --      2.2717                 1.0548                 1.0789
 Frc consts  --      2.8957                 1.3550                 1.3892
 IR Inten    --      7.0481                10.8076                 3.8293

                    112                    113                    114
                      A                      A                      A
 Frequencies --   1485.4545              1491.7369              1498.1092
 Red. masses --      1.0887                 1.0710                 1.2607
 Frc consts  --      1.4154                 1.4042                 1.6670
 IR Inten    --     11.5328                30.3081                26.0412

                    115                    116                    117
                      A                      A                      A
 Frequencies --   1501.3422              1518.3371              1556.8585
 Red. masses --      1.6226                 2.2165                 3.4022
 Frc consts  --      2.1548                 3.0106                 4.8585
 IR Inten    --     12.9111                 6.7748               157.1492

                    118                    119                    120
                      A                      A                      A
 Frequencies --   1599.0088              1622.2278              1644.7296
 Red. masses --      4.5204                 5.8458                 5.7011
 Frc consts  --      6.8097                 9.0639                 9.0866
 IR Inten    --      2.3532                 2.1412                31.1784

                    121                    122                    123
                      A                      A                      A
 Frequencies --   1645.6502              1765.1854              3043.2047
 Red. masses --      5.5818                11.2346                 1.0371
 Frc consts  --      8.9064                20.6247                 5.6591
 IR Inten    --    204.5203               218.2534                14.2416

                    124                    125                    126
                      A                      A                      A
 Frequencies --   3050.1547              3057.4505              3078.8014
 Red. masses --      1.0619                 1.0643                 1.0592
 Frc consts  --      5.8209                 5.8618                 5.9155
 IR Inten    --     16.7767                13.5802                26.4740

                    127                    128                    129
                      A                      A                      A
 Frequencies --   3083.3946              3098.2424              3111.6642
 Red. masses --      1.0832                 1.0958                 1.0938
 Frc consts  --      6.0679                 6.1977                 6.2396
 IR Inten    --     13.6789                16.7124                20.4158

                    130                    131                    132
                      A                      A                      A
 Frequencies --   3117.4697              3118.7718              3127.7907
 Red. masses --      1.0988                 1.1027                 1.1050
 Frc consts  --      6.2917                 6.3192                 6.3694
 IR Inten    --     33.3281                22.1276                 3.3957

                    133                    134                    135
                      A                      A                      A
 Frequencies --   3135.5080              3149.2478              3168.7401
 Red. masses --      1.0922                 1.1068                 1.0853
 Frc consts  --      6.3263                 6.4674                 6.4203
 IR Inten    --     30.0711                15.5731                 0.0890

                    136                    137                    138
                      A                      A                      A
 Frequencies --   3178.2689              3180.6930              3187.5937
 Red. masses --      1.0888                 1.0878                 1.0933
 Frc consts  --      6.4803                 6.4841                 6.5453
 IR Inten    --      6.0743                 3.2061                10.8023

                    139                    140                    141
                      A                      A                      A
 Frequencies --   3189.2922              3196.0690              3202.8590
 Red. masses --      1.0922                 1.0980                 1.0924
 Frc consts  --      6.5453                 6.6079                 6.6022
 IR Inten    --      7.8623                 9.7975                 1.0719

                    142                    143                    144
                      A                      A                      A
 Frequencies --   3209.1697              3213.5510              3229.7567
 Red. masses --      1.0976                 1.0936                 1.0940
 Frc consts  --      6.6599                 6.6542                 6.7239
 IR Inten    --      5.8030                10.5842                 1.6796

 - Thermochemistry -
 -------------------
 Temperature   298.150 Kelvin.  Pressure   1.00000 Atm.
 Atom     1 has atomic number  6 and mass  12.00000

 Molecular mass:   482.99839 amu.
 Principal axes and moments of inertia in atomic units:
                           1         2         3
     Eigenvalues --  ******************************
           X            0.99352  -0.11231  -0.01770
           Y            0.11187   0.99342  -0.02446
           Z            0.02033   0.02233   0.99954
 This molecule is an asymmetric top.
 Rotational symmetry number  1.
 Warning -- assumption of classical behavior for rotation
           may cause significant error
 Rotational temperatures (Kelvin)      0.00759     0.00681     0.00501
 Rotational constants (GHZ):           0.15823     0.14194     0.10445
    1 imaginary frequencies ignored.
 Zero-point vibrational energy    1012809.6 (Joules/Mol)
                                  242.06729 (Kcal/Mol)
 Warning -- explicit consideration of  43 degrees of freedom as
           vibrations may cause significant error
 Vibrational temperatures:     14.56    31.49    42.19    50.23    56.26
          (Kelvin)             66.66   101.51   105.86   109.12   127.81
                              130.20   139.02   150.31   157.86   171.54
                              183.78   192.89   222.20   234.86   279.95
                              298.26   322.70   345.48   370.30   400.69
                              440.52   474.04   479.90   499.04   513.81
                              528.28   559.63   566.60   570.72   594.54
                              610.39   652.72   684.55   717.34   782.32
                              792.15   858.44   873.80   893.32   902.41
                              907.32   964.93  1006.77  1020.18  1044.53
                             1093.15  1113.30  1125.39  1162.09  1207.01
                             1229.03  1232.73  1242.43  1259.14  1278.05
                             1325.55  1354.68  1369.24  1387.73  1413.26
                             1422.08  1432.84  1440.24  1443.40  1450.18
                             1458.26  1462.19  1470.89  1498.57  1504.27
                             1515.20  1520.63  1558.08  1588.54  1599.38
                             1602.28  1619.24  1660.43  1677.53  1687.53
                             1700.75  1704.36  1711.30  1726.60  1733.01
                             1748.83  1764.77  1782.95  1846.41  1874.78
                             1889.64  1895.51  1904.20  1922.23  1951.65
                             1961.61  1971.28  1973.84  2004.67  2013.90
                             2032.40  2103.65  2116.27  2124.47  2126.99
                             2137.24  2146.28  2155.45  2160.10  2184.55
                             2239.97  2300.62  2334.02  2366.40  2367.72
                             2539.71  4378.49  4388.49  4398.99  4429.71
                             4436.32  4457.68  4476.99  4485.34  4487.22
                             4500.19  4511.30  4531.07  4559.11  4572.82
                             4576.31  4586.24  4588.68  4598.43  4608.20
                             4617.28  4623.58  4646.90

 Zero-point correction=                           0.385759 (Hartree/Particle)
 Thermal correction to Energy=                    0.414207
 Thermal correction to Enthalpy=                  0.415151
 Thermal correction to Gibbs Free Energy=         0.320789
 Sum of electronic and zero-point Energies=          -3683.604486
 Sum of electronic and thermal Energies=             -3683.576037
 Sum of electronic and thermal Enthalpies=           -3683.575093
 Sum of electronic and thermal Free Energies=        -3683.669456

                     E (Thermal)             CV                S
                      KCal/Mol        Cal/Mol-Kelvin    Cal/Mol-Kelvin
 Total                  259.919            103.971            198.603
 Electronic               0.000              0.000              3.561
 Translational            0.889              2.981             44.412
 Rotational               0.889              2.981             36.170
 Vibrational            258.141             98.009            114.460
 Vibration     1          0.593              1.987              7.987
 Vibration     2          0.593              1.985              6.455
 Vibration     3          0.593              1.984              5.874
 Vibration     4          0.594              1.983              5.529
 Vibration     5          0.594              1.981              5.304
 Vibration     6          0.595              1.979              4.968
 Vibration     7          0.598              1.968              4.138
 Vibration     8          0.599              1.966              4.055
 Vibration     9          0.599              1.965              3.996
 Vibration    10          0.602              1.957              3.686
 Vibration    11          0.602              1.956              3.649
 Vibration    12          0.603              1.952              3.521
 Vibration    13          0.605              1.946              3.369
 Vibration    14          0.606              1.941              3.274
 Vibration    15          0.609              1.933              3.113
 Vibration    16          0.611              1.925              2.980
 Vibration    17          0.613              1.919              2.887
 Vibration    18          0.620              1.898              2.617
 Vibration    19          0.623              1.888              2.512
 Vibration    20          0.635              1.847              2.184
 Vibration    21          0.641              1.829              2.067
 Vibration    22          0.649              1.804              1.924
 Vibration    23          0.657              1.779              1.802
 Vibration    24          0.667              1.750              1.680
 Vibration    25          0.679              1.713              1.543
 Vibration    26          0.697              1.662              1.383
 Vibration    27          0.712              1.617              1.263
 Vibration    28          0.715              1.609              1.243
 Vibration    29          0.725              1.582              1.180
 Vibration    30          0.732              1.561              1.135
 Vibration    31          0.740              1.540              1.092
 Vibration    32          0.757              1.494              1.004
 Vibration    33          0.761              1.483              0.986
 Vibration    34          0.763              1.477              0.975
 Vibration    35          0.777              1.442              0.915
 Vibration    36          0.786              1.418              0.878
 Vibration    37          0.812              1.353              0.785
 Vibration    38          0.832              1.304              0.722
 Vibration    39          0.854              1.253              0.662
 Vibration    40          0.899              1.153              0.557
 Vibration    41          0.906              1.138              0.543
 Vibration    42          0.954              1.039              0.455
 Vibration    43          0.966              1.016              0.437

 Optimization completed.
    -- Stationary point found.
 Normal termination of Gaussian 16 at Mon Jun  7 02:26:09 2021.
