 Gaussian 16, Revision A.03,
 Gaussian 16:  ES64L-G16RevA.03 25-Dec-2016

 ----------------------------------------------------------------------
 #p opt=(calcfc,ts,noeigentest) freq=noraman b3lyp pop=none empiricaldi
 spersion=gd3bj jul-cc-pvdz
 ----------------------------------------------------------------------

 -----
 title
 -----
 Symbolic Z-matrix:
 Charge =  0 Multiplicity = 6

 SCF Done:  E(UB3LYP) =  -3683.99141111     A.U. after   26 cycles
 Optimization completed.
    -- Stationary point found.
 Normal termination of Gaussian 16 at Wed Jun  9 17:36:26 2021.

 ----------------------------------------------------------------------
 #P Geom=AllCheck Guess=TCheck SCRF=Check GenChk UB3LYP/Jul-CC-pVDZ Fre
 q
 ----------------------------------------------------------------------

 Structure from the checkpoint file:  "/scratch/kwaneu.2865079.bmbhpcps002/Gau-46621.chk"
 -----
 title
 -----
 Charge =  0 Multiplicity = 6

                         Standard orientation:
 ---------------------------------------------------------------------
 Center     Atomic      Atomic             Coordinates (Angstroms)
 Number     Number       Type             X           Y           Z
 ---------------------------------------------------------------------
      1          6           0        2.005546    0.542420    1.876507
      2          6           0        1.757419    0.858749    0.511132
      3          6           0        1.946137    2.196535    0.070843
      4          6           0        2.370747    3.175987    0.957629
      5          6           0        2.600512    2.845002    2.297688
      6          6           0        2.415552    1.530620    2.756289
      7          6           0        1.272319   -0.134759   -0.377371
      8          6           0        1.279925   -1.604112   -0.071754
      9          6           0        0.592069   -2.289929   -1.279663
     10          6           0        0.565378   -1.227514   -2.393734
     11          6           0        0.605233    0.118891   -1.654425
     12          6           0       -0.901330    0.606341   -1.173251
     13          8           0       -1.243869   -0.062523   -0.024853
     14         26           0       -2.640988   -1.215968    0.406684
     15         17           0       -4.232603   -0.068691    1.424802
     16         17           0       -1.645804   -2.734661    1.719679
     17         17           0       -3.233729   -2.034955   -1.583882
     18          1           0        1.777521    2.452414   -0.970835
     19          1           0        2.510353    4.198991    0.611331
     20          1           0        2.923657    3.617919    2.996670
     21          1           0        2.583892    1.288898    3.805101
     22          1           0        1.842337   -0.470348    2.237314
     23          1           0        0.743774   -1.808424    0.865254
     24          6           0        2.735074   -2.036240    0.133309
     25          1           0        1.120484   -3.200004   -1.582431
     26          1           0       -0.420183   -2.578091   -0.986326
     27          1           0        1.451203   -1.310285   -3.037194
     28          1           0       -0.326344   -1.317688   -3.024258
     29          1           0        1.021916    0.943646   -2.237345
     30          8           0        3.437511   -1.866371   -1.005388
     31          8           0        3.196437   -2.450643    1.169770
     32          6           0        4.859620   -2.176495   -0.945580
     33          6           0        5.642594   -1.002390   -0.386714
     34          1           0        4.993087   -3.080597   -0.340846
     35          1           0        5.126665   -2.389196   -1.987122
     36          1           0        6.716651   -1.235825   -0.412348
     37          1           0        5.471087   -0.098263   -0.987077
     38          1           0        5.358574   -0.802672    0.654271
     39          6           0       -0.936731    2.104117   -0.997536
     40          6           0       -0.725217    2.958025   -2.092314
     41          6           0       -1.184404    2.659124    0.263860
     42          6           0       -0.735128    4.341278   -1.924374
     43          1           0       -0.558240    2.535821   -3.085932
     44          6           0       -1.200862    4.046768    0.432598
     45          1           0       -1.382096    1.988182    1.097233
     46          6           0       -0.967408    4.890468   -0.654848
     47          1           0       -0.575482    4.995601   -2.782314
     48          1           0       -1.402544    4.467621    1.418305
     49          1           0       -0.982762    5.973301   -0.523922
     50          1           0       -1.524458    0.314387   -2.037466
 ---------------------------------------------------------------------

 SCF Done:  E(UB3LYP) =  -3683.99141111     A.U. after    2 cycles

 Isotropic polarizability for W=    0.000000      353.79 Bohr**3.
 End of Minotr F.D. properties file   721 does not exist.

 ******    1 imaginary frequencies (negative Signs) ******

                      1                      2                      3
                      A                      A                      A
 Frequencies --    -42.2632                18.7439                23.8746
 Red. masses --      8.1611                 4.4524                15.1056
 Frc consts  --      0.0086                 0.0009                 0.0051
 IR Inten    --      8.9166                 0.8124                 0.0558

                      4                      5                      6
                      A                      A                      A
 Frequencies --     28.3046                31.8551                33.4643
 Red. masses --      6.2414                 7.0432                 5.3505
 Frc consts  --      0.0029                 0.0042                 0.0035
 IR Inten    --      1.4345                 0.0501                 0.2916

                      7                      8                      9
                      A                      A                      A
 Frequencies --     46.8232                56.7092                63.8824
 Red. masses --      4.9610                 4.1520                 9.3535
 Frc consts  --      0.0064                 0.0079                 0.0225
 IR Inten    --      3.7632                 3.4527                 1.6169

                     10                     11                     12
                      A                      A                      A
 Frequencies --     74.8085                81.9064                87.9691
 Red. masses --      4.5283                10.9690                 4.6488
 Frc consts  --      0.0149                 0.0434                 0.0212
 IR Inten    --      4.7952                 2.6641                 1.5909

                     13                     14                     15
                      A                      A                      A
 Frequencies --     89.2529               100.8628               104.4384
 Red. masses --      5.1596                11.4968                 4.0834
 Frc consts  --      0.0242                 0.0689                 0.0262
 IR Inten    --      1.9634                 0.6676                 1.2650

                     16                     17                     18
                      A                      A                      A
 Frequencies --    107.5533               121.0611               125.5519
 Red. masses --      7.9093                12.7213                11.1414
 Frc consts  --      0.0539                 0.1098                 0.1035
 IR Inten    --      0.2023                19.4706                 4.8876

                     19                     20                     21
                      A                      A                      A
 Frequencies --    155.4143               178.2156               185.7820
 Red. masses --      4.7554                 6.2117                 4.1164
 Frc consts  --      0.0677                 0.1162                 0.0837
 IR Inten    --      5.5603                 1.7079                 2.5917

                     22                     23                     24
                      A                      A                      A
 Frequencies --    203.3653               213.4806               244.9955
 Red. masses --      1.5984                 3.9035                 2.1457
 Frc consts  --      0.0389                 0.1048                 0.0759
 IR Inten    --      2.9080                12.8226                 3.2623

                     25                     26                     27
                      A                      A                      A
 Frequencies --    250.7389               278.7918               304.9969
 Red. masses --      3.7162                 5.6267                 4.2837
 Frc consts  --      0.1377                 0.2577                 0.2348
 IR Inten    --     14.4259                 6.9272                15.1916

                     28                     29                     30
                      A                      A                      A
 Frequencies --    321.0740               328.9198               347.6827
 Red. masses --      3.3877                 6.0814                 8.4100
 Frc consts  --      0.2058                 0.3876                 0.5990
 IR Inten    --     11.7841                 5.7459                44.4603

                     31                     32                     33
                      A                      A                      A
 Frequencies --    362.3835               375.5098               392.4307
 Red. masses --      4.8713                37.8108                30.6851
 Frc consts  --      0.3769                 3.1413                 2.7842
 IR Inten    --     14.6320                74.4389               101.7534

                     34                     35                     36
                      A                      A                      A
 Frequencies --    401.3480               406.1150               410.0760
 Red. masses --      3.8834                 3.4066                 3.0236
 Frc consts  --      0.3686                 0.3310                 0.2996
 IR Inten    --      1.0405                 1.1265                 0.4993

                     37                     38                     39
                      A                      A                      A
 Frequencies --    432.5975               453.1623               461.6881
 Red. masses --      3.5834                 3.5928                 3.8987
 Frc consts  --      0.3951                 0.4347                 0.4896
 IR Inten    --      8.2495                 5.6343                18.0010

                     40                     41                     42
                      A                      A                      A
 Frequencies --    493.3399               566.4530               600.4364
 Red. masses --      3.5662                 5.7066                 4.4527
 Frc consts  --      0.5114                 1.0788                 0.9458
 IR Inten    --      3.1536                29.1007                 8.9428

                     43                     44                     45
                      A                      A                      A
 Frequencies --    619.5072               627.4786               632.9967
 Red. masses --      5.4296                 5.9874                 4.1138
 Frc consts  --      1.2278                 1.3889                 0.9712
 IR Inten    --     10.9431                14.4495                46.3712

                     46                     47                     48
                      A                      A                      A
 Frequencies --    653.8579               672.1980               681.5002
 Red. masses --      3.2688                 2.7472                 2.1716
 Frc consts  --      0.8234                 0.7314                 0.5942
 IR Inten    --     37.6616                13.4746                59.4903

                     49                     50                     51
                      A                      A                      A
 Frequencies --    694.4583               709.4526               744.5091
 Red. masses --      4.2492                 1.5024                 4.1180
 Frc consts  --      1.2074                 0.4455                 1.3449
 IR Inten    --     20.8188               145.5706                25.5739

                     52                     53                     54
                      A                      A                      A
 Frequencies --    769.1078               778.3790               785.6049
 Red. masses --      2.2664                 1.6614                 2.5458
 Frc consts  --      0.7899                 0.5931                 0.9257
 IR Inten    --      7.5441                 8.6764                14.8781

                     55                     56                     57
                      A                      A                      A
 Frequencies --    833.0643               834.8892               836.9444
 Red. masses --      1.4483                 2.1691                 2.5921
 Frc consts  --      0.5922                 0.8908                 1.0698
 IR Inten    --     14.4684                 6.7514                48.2032

                     58                     59                     60
                      A                      A                      A
 Frequencies --    846.8446               850.0986               864.0430
 Red. masses --      3.1325                 1.3135                 2.5288
 Frc consts  --      1.3236                 0.5593                 1.1123
 IR Inten    --      2.8860                 0.8945                 9.0483

                     61                     62                     63
                      A                      A                      A
 Frequencies --    882.0238               913.1572               932.8029
 Red. masses --      4.1651                 2.3462                 1.8599
 Frc consts  --      1.9091                 1.1527                 0.9535
 IR Inten    --     12.0758                 4.5540                22.7140

                     64                     65                     66
                      A                      A                      A
 Frequencies --    936.9098               961.6772               980.4462
 Red. masses --      1.8249                 1.4297                 2.2557
 Frc consts  --      0.9438                 0.7790                 1.2776
 IR Inten    --     22.5275                 2.2628                 7.2506

                     67                     68                     69
                      A                      A                      A
 Frequencies --    983.8466               989.9507               997.9807
 Red. masses --      1.4565                 1.4134                 2.0883
 Frc consts  --      0.8307                 0.8161                 1.2254
 IR Inten    --      1.1371                 5.1544                81.3978

                     70                     71                     72
                      A                      A                      A
 Frequencies --   1000.3701              1006.6571              1009.6708
 Red. masses --      1.7158                 5.0264                 4.5843
 Frc consts  --      1.0117                 3.0010                 2.7535
 IR Inten    --     54.2548                10.2196                 4.1396

                     73                     74                     75
                      A                      A                      A
 Frequencies --   1015.1539              1024.2814              1030.2509
 Red. masses --      1.3658                 2.0906                 1.9920
 Frc consts  --      0.8293                 1.2923                 1.2457
 IR Inten    --      2.6792                23.5798               133.8348

                     76                     77                     78
                      A                      A                      A
 Frequencies --   1045.9864              1047.5179              1056.9017
 Red. masses --      2.1621                 2.1173                 2.3251
 Frc consts  --      1.3937                 1.3688                 1.5303
 IR Inten    --      6.7354                 1.8609                60.3128

                     79                     80                     81
                      A                      A                      A
 Frequencies --   1080.1824              1097.9631              1110.0979
 Red. masses --      2.0777                 1.5271                 2.0585
 Frc consts  --      1.4283                 1.0847                 1.4946
 IR Inten    --     39.6558                10.4592                51.9866

                     82                     83                     84
                      A                      A                      A
 Frequencies --   1113.4015              1137.2981              1171.6654
 Red. masses --      1.6802                 1.5134                 1.0933
 Frc consts  --      1.2272                 1.1533                 0.8843
 IR Inten    --     10.7914               144.8407                 1.4454

                     85                     86                     87
                      A                      A                      A
 Frequencies --   1179.2760              1182.8585              1186.2981
 Red. masses --      2.1231                 1.1245                 1.2754
 Frc consts  --      1.7396                 0.9270                 1.0575
 IR Inten    --    108.9109                 7.1785                 8.0613

                     88                     89                     90
                      A                      A                      A
 Frequencies --   1186.8107              1191.0274              1210.8525
 Red. masses --      1.5349                 1.6786                 1.5670
 Frc consts  --      1.2738                 1.4030                 1.3536
 IR Inten    --     32.4030                73.0491                63.7988

                     91                     92                     93
                      A                      A                      A
 Frequencies --   1212.6341              1221.1062              1237.6775
 Red. masses --      1.1871                 2.1381                 2.0573
 Frc consts  --      1.0285                 1.8784                 1.8568
 IR Inten    --     44.1148               104.0853               151.5854

                     94                     95                     96
                      A                      A                      A
 Frequencies --   1253.4592              1261.0151              1283.5703
 Red. masses --      1.5797                 1.4362                 1.3324
 Frc consts  --      1.4623                 1.3455                 1.2934
 IR Inten    --     32.4066                 9.2096                 1.4002

                     97                     98                     99
                      A                      A                      A
 Frequencies --   1304.7042              1314.2306              1317.4128
 Red. masses --      1.6680                 1.1543                 1.5167
 Frc consts  --      1.6729                 1.1747                 1.5510
 IR Inten    --     12.5191                20.1239                35.3358

                    100                    101                    102
                      A                      A                      A
 Frequencies --   1330.2514              1341.7112              1349.4731
 Red. masses --      1.5064                 1.4954                 1.4423
 Frc consts  --      1.5706                 1.5861                 1.5475
 IR Inten    --      3.3148                28.4202                21.1767

                    103                    104                    105
                      A                      A                      A
 Frequencies --   1363.4942              1368.0085              1379.8062
 Red. masses --      1.6302                 4.3613                 1.2813
 Frc consts  --      1.7856                 4.8089                 1.4372
 IR Inten    --     41.5994                19.0789                 4.3750

                    106                    107                    108
                      A                      A                      A
 Frequencies --   1389.7228              1406.4999              1452.8105
 Red. masses --      6.0018                 1.3298                 2.4600
 Frc consts  --      6.8295                 1.5500                 3.0592
 IR Inten    --     11.9193                 9.1262               112.5704

                    109                    110                    111
                      A                      A                      A
 Frequencies --   1473.3389              1476.0453              1476.2128
 Red. masses --      2.2842                 1.3692                 1.5238
 Frc consts  --      2.9214                 1.7576                 1.9564
 IR Inten    --     12.3493                42.9642                 7.3267

                    112                    113                    114
                      A                      A                      A
 Frequencies --   1479.4098              1485.8378              1491.9617
 Red. masses --      1.0748                 1.1489                 1.0644
 Frc consts  --      1.3860                 1.4944                 1.3959
 IR Inten    --      5.0527                20.2466                12.7010

                    115                    116                    117
                      A                      A                      A
 Frequencies --   1502.2720              1514.8429              1539.6134
 Red. masses --      1.1021                 2.2937                 3.1688
 Frc consts  --      1.4654                 3.1012                 4.4255
 IR Inten    --      5.4237                 2.4365                85.0206

                    118                    119                    120
                      A                      A                      A
 Frequencies --   1602.6561              1623.2764              1643.5272
 Red. masses --      4.6696                 5.9313                 5.7153
 Frc consts  --      7.0666                 9.2084                 9.0959
 IR Inten    --      4.7788                 6.8838                84.2997

                    121                    122                    123
                      A                      A                      A
 Frequencies --   1644.8567              1786.9800              2980.7193
 Red. masses --      5.6757                11.5480                 1.0831
 Frc consts  --      9.0475                21.7268                 5.6695
 IR Inten    --     82.2992               255.5305                17.4831

                    124                    125                    126
                      A                      A                      A
 Frequencies --   3040.3588              3057.5942              3060.9204
 Red. masses --      1.0353                 1.0833                 1.0638
 Frc consts  --      5.6384                 5.9670                 5.8725
 IR Inten    --     10.0880                84.6125                28.5940

                    127                    128                    129
                      A                      A                      A
 Frequencies --   3084.6642              3096.5361              3113.6874
 Red. masses --      1.0596                 1.0647                 1.1013
 Frc consts  --      5.9405                 6.0147                 6.2909
 IR Inten    --     26.1809                21.2525                24.0927

                    130                    131                    132
                      A                      A                      A
 Frequencies --   3118.3901              3124.9630              3128.3631
 Red. masses --      1.1027                 1.1022                 1.0866
 Frc consts  --      6.3177                 6.3415                 6.2654
 IR Inten    --      6.6329                13.7900                 9.4672

                    133                    134                    135
                      A                      A                      A
 Frequencies --   3149.2174              3153.1881              3156.3840
 Red. masses --      1.1097                 1.0876                 1.1027
 Frc consts  --      6.4843                 6.3712                 6.4726
 IR Inten    --     12.9134                 3.9129                 2.8297

                    136                    137                    138
                      A                      A                      A
 Frequencies --   3171.1845              3181.8699              3182.5303
 Red. masses --      1.0869                 1.0880                 1.0924
 Frc consts  --      6.4398                 6.4898                 6.5190
 IR Inten    --      0.8407                 1.0251                13.5030

                    139                    140                    141
                      A                      A                      A
 Frequencies --   3194.0525              3200.3793              3206.1106
 Red. masses --      1.0977                 1.0914                 1.0951
 Frc consts  --      6.5978                 6.5863                 6.6325
 IR Inten    --     17.6346                 2.8714                 3.3280

                    142                    143                    144
                      A                      A                      A
 Frequencies --   3216.5446              3227.0629              3235.9768
 Red. masses --      1.0929                 1.0948                 1.0933
 Frc consts  --      6.6622                 6.7176                 6.7452
 IR Inten    --      2.7434                 2.1264                 0.8633

 - Thermochemistry -
 -------------------
 Temperature   298.150 Kelvin.  Pressure   1.00000 Atm.
 Atom     1 has atomic number  6 and mass  12.00000

 Molecular mass:   482.99839 amu.
 Principal axes and moments of inertia in atomic units:
                           1         2         3
     Eigenvalues --  ******************************
           X            0.99822  -0.05958   0.00356
           Y            0.05953   0.99815   0.01261
           Z           -0.00431  -0.01238   0.99991
 This molecule is an asymmetric top.
 Rotational symmetry number  1.
 Warning -- assumption of classical behavior for rotation
           may cause significant error
 Rotational temperatures (Kelvin)      0.00760     0.00583     0.00433
 Rotational constants (GHZ):           0.15833     0.12145     0.09028
    1 imaginary frequencies ignored.
 Zero-point vibrational energy    1012479.9 (Joules/Mol)
                                  241.98851 (Kcal/Mol)
 Warning -- explicit consideration of  42 degrees of freedom as
           vibrations may cause significant error
 Vibrational temperatures:     26.97    34.35    40.72    45.83    48.15
          (Kelvin)             67.37    81.59    91.91   107.63   117.85
                              126.57   128.42   145.12   150.26   154.75
                              174.18   180.64   223.61   256.41   267.30
                              292.60   307.15   352.49   360.76   401.12
                              438.82   461.95   473.24   500.24   521.39
                              540.27   564.62   577.45   584.31   590.01
                              622.41   652.00   664.27   709.81   815.00
                              863.89   891.33   902.80   910.74   940.76
                              967.14   980.53   999.17  1020.74  1071.18
                             1106.57  1119.91  1130.31  1198.59  1201.22
                             1204.18  1218.42  1223.10  1243.17  1269.04
                             1313.83  1342.10  1348.00  1383.64  1410.64
                             1415.54  1424.32  1435.87  1439.31  1448.36
                             1452.69  1460.58  1473.71  1482.30  1504.94
                             1507.14  1520.65  1554.14  1579.72  1597.18
                             1601.94  1636.32  1685.77  1696.72  1701.87
                             1706.82  1707.56  1713.62  1742.15  1744.71
                             1756.90  1780.74  1803.45  1814.32  1846.77
                             1877.18  1890.88  1895.46  1913.94  1930.42
                             1941.59  1961.76  1968.26  1985.23  1999.50
                             2023.64  2090.27  2119.81  2123.70  2123.94
                             2128.54  2137.79  2146.60  2161.43  2179.52
                             2215.16  2305.86  2335.53  2364.67  2366.58
                             2571.07  4288.59  4374.40  4399.20  4403.98
                             4438.14  4455.22  4479.90  4486.67  4496.12
                             4501.02  4531.02  4536.73  4541.33  4562.63
                             4578.00  4578.95  4595.53  4604.63  4612.88
                             4627.89  4643.02  4655.85

 Zero-point correction=                           0.385633 (Hartree/Particle)
 Thermal correction to Energy=                    0.414130
 Thermal correction to Enthalpy=                  0.415074
 Thermal correction to Gibbs Free Energy=         0.320315
 Sum of electronic and zero-point Energies=          -3683.605778
 Sum of electronic and thermal Energies=             -3683.577281
 Sum of electronic and thermal Enthalpies=           -3683.576337
 Sum of electronic and thermal Free Energies=        -3683.671096

                     E (Thermal)             CV                S
                      KCal/Mol        Cal/Mol-Kelvin    Cal/Mol-Kelvin
 Total                  259.870            103.684            199.438
 Electronic               0.000              0.000              3.561
 Translational            0.889              2.981             44.412
 Rotational               0.889              2.981             36.469
 Vibrational            258.093             97.722            114.996
 Vibration     1          0.593              1.986              6.763
 Vibration     2          0.593              1.985              6.283
 Vibration     3          0.593              1.984              5.945
 Vibration     4          0.594              1.983              5.710
 Vibration     5          0.594              1.983              5.613
 Vibration     6          0.595              1.979              4.947
 Vibration     7          0.596              1.975              4.569
 Vibration     8          0.597              1.972              4.334
 Vibration     9          0.599              1.966              4.023
 Vibration    10          0.600              1.962              3.845
 Vibration    11          0.601              1.958              3.705
 Vibration    12          0.602              1.957              3.676
 Vibration    13          0.604              1.948              3.438
 Vibration    14          0.605              1.946              3.370
 Vibration    15          0.606              1.943              3.313
 Vibration    16          0.609              1.932              3.083
 Vibration    17          0.610              1.928              3.013
 Vibration    18          0.620              1.897              2.605
 Vibration    19          0.629              1.869              2.347
 Vibration    20          0.632              1.859              2.270
 Vibration    21          0.639              1.835              2.102
 Vibration    22          0.644              1.820              2.014
 Vibration    23          0.660              1.771              1.766
 Vibration    24          0.663              1.762              1.725
 Vibration    25          0.679              1.713              1.541
 Vibration    26          0.696              1.664              1.389
 Vibration    27          0.707              1.633              1.305
 Vibration    28          0.712              1.618              1.265
 Vibration    29          0.725              1.580              1.177
 Vibration    30          0.736              1.550              1.112
 Vibration    31          0.746              1.522              1.057
 Vibration    32          0.760              1.486              0.991
 Vibration    33          0.767              1.467              0.958
 Vibration    34          0.771              1.457              0.940
 Vibration    35          0.774              1.448              0.926
 Vibration    36          0.793              1.399              0.850
 Vibration    37          0.812              1.354              0.786
 Vibration    38          0.819              1.335              0.761
 Vibration    39          0.849              1.265              0.675
 Vibration    40          0.922              1.104              0.511
 Vibration    41          0.959              1.031              0.449
 Vibration    42          0.979              0.991              0.417

 Optimization completed.
    -- Stationary point found.
 Normal termination of Gaussian 16 at Thu Jun 10 00:28:07 2021.
