 Gaussian 16, Revision A.03,
 Gaussian 16:  ES64L-G16RevA.03 25-Dec-2016

 ----------------------------------------------------------------------
 #p opt=(calcfc,ts,noeigentest,maxstep=5) freq=noraman b3lyp pop=none e
 mpiricaldispersion=gd3bj jul-cc-pvdz
 ----------------------------------------------------------------------

 -----
 title
 -----
 Symbolic Z-matrix:
 Charge =  0 Multiplicity = 6

 SCF Done:  E(UB3LYP) =  -3683.99172621     A.U. after   26 cycles
 Optimization completed.
    -- Stationary point found.
 Normal termination of Gaussian 16 at Wed Jun  9 19:28:40 2021.

 ----------------------------------------------------------------------
 #P Geom=AllCheck Guess=TCheck SCRF=Check GenChk UB3LYP/Jul-CC-pVDZ Fre
 q
 ----------------------------------------------------------------------

 Structure from the checkpoint file:  "/scratch/kwaneu.2865078.bmbhpcps002/Gau-10320.chk"
 -----
 title
 -----
 Charge =  0 Multiplicity = 6

                         Standard orientation:
 ---------------------------------------------------------------------
 Center     Atomic      Atomic             Coordinates (Angstroms)
 Number     Number       Type             X           Y           Z
 ---------------------------------------------------------------------
      1          6           0       -1.990065    0.523425   -1.497260
      2          6           0       -1.746116    0.874781   -0.142456
      3          6           0       -1.964021    2.216032    0.268849
      4          6           0       -2.428594    3.163502   -0.632276
      5          6           0       -2.652522    2.799698   -1.964745
      6          6           0       -2.424509    1.484227   -2.397184
      7          6           0       -1.199285   -0.075957    0.761724
      8          6           0       -1.261853   -1.563706    0.586415
      9          6           0       -0.411504   -2.162541    1.728063
     10          6           0       -0.232533   -1.021390    2.745586
     11          6           0       -0.376613    0.260892    1.916010
     12          6           0        1.061674    0.695223    1.174168
     13          8           0        1.248252   -0.062350    0.052798
     14         26           0        2.507735   -1.289027   -0.547923
     15         17           0        3.930458   -0.251424   -1.884141
     16         17           0        1.239573   -2.802470   -1.622307
     17         17           0        3.411025   -2.061427    1.335982
     18          1           0       -1.790707    2.497699    1.303572
     19          1           0       -2.597369    4.188414   -0.305311
     20          1           0       -2.999063    3.548751   -2.678203
     21          1           0       -2.576731    1.219022   -3.442942
     22          1           0       -1.784503   -0.487888   -1.836594
     23          1           0       -0.884973   -1.851601   -0.406683
     24          6           0       -2.743748   -1.962552    0.681435
     25          1           0       -0.900039   -3.037012    2.168280
     26          1           0        0.551722   -2.480504    1.321737
     27          1           0       -1.023329   -1.048579    3.507127
     28          1           0        0.736132   -1.069994    3.256210
     29          1           0       -0.689081    1.144416    2.476183
     30          8           0       -3.295261   -2.076535   -0.534950
     31          8           0       -3.327521   -2.129679    1.728216
     32          6           0       -4.732819   -2.313841   -0.580709
     33          6           0       -5.492810   -1.006096   -0.454800
     34          1           0       -4.887705   -2.787821   -1.556515
     35          1           0       -4.994075   -3.018491    0.216831
     36          1           0       -6.569753   -1.198351   -0.563864
     37          1           0       -5.323877   -0.548697    0.528540
     38          1           0       -5.185008   -0.299160   -1.237250
     39          6           0        1.054551    2.172632    0.871186
     40          6           0        0.965976    3.119415    1.904831
     41          6           0        1.142007    2.615587   -0.454532
     42          6           0        0.939658    4.482651    1.617249
     43          1           0        0.923038    2.786900    2.944504
     44          6           0        1.119291    3.982159   -0.744127
     45          1           0        1.246273    1.875336   -1.244795
     46          6           0        1.009089    4.918159    0.286290
     47          1           0        0.876308    5.209315    2.428143
     48          1           0        1.194484    4.315018   -1.779946
     49          1           0        0.994216    5.985261    0.060496
     50          1           0        1.789690    0.467827    1.973606
 ---------------------------------------------------------------------

 SCF Done:  E(UB3LYP) =  -3683.99172620     A.U. after    2 cycles

 Isotropic polarizability for W=    0.000000      351.85 Bohr**3.
 End of Minotr F.D. properties file   721 does not exist.

 ******    1 imaginary frequencies (negative Signs) ******

                      1                      2                      3
                      A                      A                      A
 Frequencies --    -61.6267                18.2466                22.4762
 Red. masses --      8.1078                 5.1691                 8.2641
 Frc consts  --      0.0181                 0.0010                 0.0025
 IR Inten    --     38.3243                 0.1904                 1.0308

                      4                      5                      6
                      A                      A                      A
 Frequencies --     25.4455                30.2912                36.2894
 Red. masses --      8.3172                 7.9478                 4.4110
 Frc consts  --      0.0032                 0.0043                 0.0034
 IR Inten    --      0.2444                 4.0896                 3.9722

                      7                      8                      9
                      A                      A                      A
 Frequencies --     43.0031                48.7369                60.2765
 Red. masses --      4.8354                 5.0422                 9.3447
 Frc consts  --      0.0053                 0.0071                 0.0200
 IR Inten    --      4.6373                 0.1066                 3.0786

                     10                     11                     12
                      A                      A                      A
 Frequencies --     73.9693                82.0545                87.0437
 Red. masses --      4.3912                13.1839                 4.3272
 Frc consts  --      0.0142                 0.0523                 0.0193
 IR Inten    --      4.1300                 1.2758                 2.1483

                     13                     14                     15
                      A                      A                      A
 Frequencies --     94.9486               100.4061               104.0013
 Red. masses --      4.3670                 5.3941                 7.9298
 Frc consts  --      0.0232                 0.0320                 0.0505
 IR Inten    --      1.5760                 1.5863                 0.9538

                     16                     17                     18
                      A                      A                      A
 Frequencies --    107.8863               119.7288               126.1066
 Red. masses --      7.0465                12.5185                11.2047
 Frc consts  --      0.0483                 0.1057                 0.1050
 IR Inten    --      3.5833                21.6060                 6.4874

                     19                     20                     21
                      A                      A                      A
 Frequencies --    157.5834               179.4239               188.9593
 Red. masses --      4.5038                 7.4714                 4.7665
 Frc consts  --      0.0659                 0.1417                 0.1003
 IR Inten    --      7.9309                 0.1216                 6.8081

                     22                     23                     24
                      A                      A                      A
 Frequencies --    201.3901               211.4869               238.3098
 Red. masses --      1.4516                 4.7400                 4.5416
 Frc consts  --      0.0347                 0.1249                 0.1520
 IR Inten    --      2.8136                13.6418                19.8418

                     25                     26                     27
                      A                      A                      A
 Frequencies --    262.8110               274.8712               298.6981
 Red. masses --      2.2816                 3.3278                 4.6784
 Frc consts  --      0.0928                 0.1481                 0.2459
 IR Inten    --      3.3694                13.0063                15.8146

                     28                     29                     30
                      A                      A                      A
 Frequencies --    314.6571               328.3615               344.8488
 Red. masses --      4.4677                 6.5841                 6.6506
 Frc consts  --      0.2606                 0.4183                 0.4660
 IR Inten    --      1.2499                16.9429                50.2128

                     31                     32                     33
                      A                      A                      A
 Frequencies --    349.6433               374.4129               382.2921
 Red. masses --      3.8643                33.3324                 4.8557
 Frc consts  --      0.2783                 2.7531                 0.4181
 IR Inten    --      7.1420                77.8955                13.8072

                     34                     35                     36
                      A                      A                      A
 Frequencies --    393.4486               400.5126               408.7622
 Red. masses --     21.3463                 2.8773                 2.9366
 Frc consts  --      1.9469                 0.2719                 0.2891
 IR Inten    --     87.1550                 3.4206                 1.1602

                     37                     38                     39
                      A                      A                      A
 Frequencies --    429.1998               458.7860               472.8893
 Red. masses --      3.9029                 3.8583                 3.3544
 Frc consts  --      0.4236                 0.4785                 0.4420
 IR Inten    --     10.3680                 2.7186                 7.6214

                     40                     41                     42
                      A                      A                      A
 Frequencies --    483.7566               570.8560               612.6926
 Red. masses --      3.5670                 5.7490                 4.8160
 Frc consts  --      0.4918                 1.1038                 1.0652
 IR Inten    --      9.6218                19.5901                 9.0902

                     43                     44                     45
                      A                      A                      A
 Frequencies --    619.2996               625.5237               629.8437
 Red. masses --      5.3529                 5.9535                 5.9349
 Frc consts  --      1.2096                 1.3725                 1.3872
 IR Inten    --     49.7957                69.6297                38.2781

                     46                     47                     48
                      A                      A                      A
 Frequencies --    650.8262               670.4506               678.4182
 Red. masses --      2.6198                 2.4912                 2.3153
 Frc consts  --      0.6538                 0.6598                 0.6279
 IR Inten    --     13.2196                33.7374                53.6143

                     49                     50                     51
                      A                      A                      A
 Frequencies --    691.3107               704.7506               725.6238
 Red. masses --      5.3047                 1.5729                 3.8980
 Frc consts  --      1.4937                 0.4603                 1.2093
 IR Inten    --     22.6011                93.7776                17.1300

                     52                     53                     54
                      A                      A                      A
 Frequencies --    765.0478               777.9293               789.5732
 Red. masses --      2.2044                 2.3466                 1.5360
 Frc consts  --      0.7602                 0.8367                 0.5642
 IR Inten    --      8.7971                 1.5257                32.5626

                     55                     56                     57
                      A                      A                      A
 Frequencies --    829.1355               833.5241               839.5161
 Red. masses --      1.2730                 2.3890                 3.0367
 Frc consts  --      0.5156                 0.9779                 1.2610
 IR Inten    --      5.6789                 2.3686                43.6669

                     58                     59                     60
                      A                      A                      A
 Frequencies --    846.7393               848.8971               864.7066
 Red. masses --      3.0564                 1.3872                 3.0492
 Frc consts  --      1.2911                 0.5890                 1.3433
 IR Inten    --     21.7489                 2.5074                10.5924

                     61                     62                     63
                      A                      A                      A
 Frequencies --    885.6626               906.9432               932.8642
 Red. masses --      3.3783                 2.4812                 1.7179
 Frc consts  --      1.5613                 1.2025                 0.8808
 IR Inten    --      8.7086                 3.5462                17.1721

                     64                     65                     66
                      A                      A                      A
 Frequencies --    936.5312               952.4490               982.7564
 Red. masses --      1.8883                 1.4610                 1.3855
 Frc consts  --      0.9758                 0.7809                 0.7884
 IR Inten    --     32.8072                 2.1911                 1.4669

                     67                     68                     69
                      A                      A                      A
 Frequencies --    983.4327               987.6935               992.5386
 Red. masses --      1.4263                 2.5776                 2.6711
 Frc consts  --      0.8128                 1.4815                 1.5504
 IR Inten    --      1.2288                30.7098               174.5601

                     70                     71                     72
                      A                      A                      A
 Frequencies --    999.0606              1006.9897              1008.9932
 Red. masses --      1.3733                 4.3186                 4.2681
 Frc consts  --      0.8076                 2.5801                 2.5601
 IR Inten    --      5.9115                 7.5932                 4.8203

                     73                     74                     75
                      A                      A                      A
 Frequencies --   1011.2432              1020.7488              1037.4289
 Red. masses --      1.4765                 2.0361                 2.2848
 Frc consts  --      0.8896                 1.2499                 1.4488
 IR Inten    --      6.3386                31.3114               125.7203

                     76                     77                     78
                      A                      A                      A
 Frequencies --   1045.4698              1047.9594              1051.1861
 Red. masses --      2.1372                 2.0833                 1.6986
 Frc consts  --      1.3763                 1.3480                 1.1059
 IR Inten    --     10.8026                 1.5480                 4.0315

                     79                     80                     81
                      A                      A                      A
 Frequencies --   1086.3365              1099.3169              1109.1977
 Red. masses --      2.0301                 1.5300                 1.7255
 Frc consts  --      1.4116                 1.0894                 1.2508
 IR Inten    --      3.8364                 8.5923                30.0461

                     82                     83                     84
                      A                      A                      A
 Frequencies --   1111.4175              1143.2710              1171.7966
 Red. masses --      1.9530                 1.3668                 1.0905
 Frc consts  --      1.4214                 1.0526                 0.8822
 IR Inten    --     17.4740                61.7503                 0.3501

                     85                     86                     87
                      A                      A                      A
 Frequencies --   1176.8071              1181.5496              1185.8220
 Red. masses --      1.8110                 1.1765                 1.6522
 Frc consts  --      1.4776                 0.9677                 1.3689
 IR Inten    --     53.3867                11.8408                77.6309

                     88                     89                     90
                      A                      A                      A
 Frequencies --   1186.3929              1192.3379              1196.2074
 Red. masses --      1.2186                 1.9553                 1.8675
 Frc consts  --      1.0105                 1.6378                 1.5744
 IR Inten    --      7.0938               103.5339               141.7532

                     91                     92                     93
                      A                      A                      A
 Frequencies --   1209.9960              1220.1101              1224.8596
 Red. masses --      1.2031                 1.8657                 1.6874
 Frc consts  --      1.0378                 1.6364                 1.4915
 IR Inten    --     12.6549               117.4577                69.2788

                     94                     95                     96
                      A                      A                      A
 Frequencies --   1250.6937              1258.5144              1282.2062
 Red. masses --      1.5064                 1.6451                 1.5182
 Frc consts  --      1.3883                 1.5352                 1.4706
 IR Inten    --     77.1211                68.9838                75.2305

                     97                     98                     99
                      A                      A                      A
 Frequencies --   1309.5686              1313.5970              1316.9707
 Red. masses --      1.5659                 1.2355                 1.5669
 Frc consts  --      1.5822                 1.2561                 1.6012
 IR Inten    --     11.4333                31.6844                50.0962

                    100                    101                    102
                      A                      A                      A
 Frequencies --   1329.7271              1342.4679              1347.6537
 Red. masses --      1.5083                 1.4976                 1.4183
 Frc consts  --      1.5713                 1.5902                 1.5176
 IR Inten    --      8.5395                22.0450                27.3992

                    103                    104                    105
                      A                      A                      A
 Frequencies --   1363.0264              1367.8606              1380.6600
 Red. masses --      1.6935                 4.4833                 1.3575
 Frc consts  --      1.8537                 4.9423                 1.5246
 IR Inten    --     38.1612                21.5905                 9.5442

                    106                    107                    108
                      A                      A                      A
 Frequencies --   1386.5720              1407.0112              1452.5343
 Red. masses --      5.0544                 1.3465                 2.5254
 Frc consts  --      5.7254                 1.5705                 3.1393
 IR Inten    --     22.0577                 8.7381               109.0424

                    109                    110                    111
                      A                      A                      A
 Frequencies --   1473.3686              1475.4559              1476.6134
 Red. masses --      2.2499                 2.1690                 1.0788
 Frc consts  --      2.8777                 2.7821                 1.3859
 IR Inten    --     12.0347                29.1254                12.0677

                    112                    113                    114
                      A                      A                      A
 Frequencies --   1479.9751              1484.2980              1491.9334
 Red. masses --      1.0775                 1.1501                 1.0676
 Frc consts  --      1.3905                 1.4929                 1.4001
 IR Inten    --      6.5375                11.8931                16.2274

                    115                    116                    117
                      A                      A                      A
 Frequencies --   1497.7992              1514.9323              1537.7340
 Red. masses --      1.1026                 2.2884                 3.1660
 Frc consts  --      1.4574                 3.0944                 4.4109
 IR Inten    --     13.8384                 2.2828                87.6026

                    118                    119                    120
                      A                      A                      A
 Frequencies --   1603.3498              1623.1997              1643.5801
 Red. masses --      4.7605                 5.9082                 5.7131
 Frc consts  --      7.2104                 9.1717                 9.0929
 IR Inten    --      4.3917                 4.9282               114.7971

                    121                    122                    123
                      A                      A                      A
 Frequencies --   1644.8785              1776.0979              2979.4868
 Red. masses --      5.7569                10.6273                 1.0833
 Frc consts  --      9.1771                19.7518                 5.6661
 IR Inten    --     44.2138               205.9717                15.6062

                    124                    125                    126
                      A                      A                      A
 Frequencies --   3034.4916              3040.2354              3060.2722
 Red. masses --      1.0824                 1.0351                 1.0632
 Frc consts  --      5.8723                 5.6371                 5.8668
 IR Inten    --    114.7659                 9.3987                23.6547

                    127                    128                    129
                      A                      A                      A
 Frequencies --   3086.5472              3103.9945              3115.2297
 Red. masses --      1.0599                 1.0626                 1.1010
 Frc consts  --      5.9490                 6.0322                 6.2954
 IR Inten    --     21.4504                11.9794                26.3426

                    130                    131                    132
                      A                      A                      A
 Frequencies --   3116.2167              3122.9414              3137.9817
 Red. masses --      1.1031                 1.1022                 1.0864
 Frc consts  --      6.3115                 6.3336                 6.3029
 IR Inten    --      7.2490                13.9641                 9.1341

                    133                    134                    135
                      A                      A                      A
 Frequencies --   3151.1261              3153.3611              3159.7075
 Red. masses --      1.1100                 1.0876                 1.1052
 Frc consts  --      6.4937                 6.3720                 6.5011
 IR Inten    --     10.7234                 3.6402                 2.5227

                    136                    137                    138
                      A                      A                      A
 Frequencies --   3171.1617              3181.4165              3182.7555
 Red. masses --      1.0868                 1.0877                 1.0924
 Frc consts  --      6.4394                 6.4863                 6.5200
 IR Inten    --      0.8452                 0.9797                13.0766

                    139                    140                    141
                      A                      A                      A
 Frequencies --   3194.1512              3198.7287              3205.6432
 Red. masses --      1.0977                 1.0919                 1.0949
 Frc consts  --      6.5987                 6.5827                 6.6290
 IR Inten    --     17.4184                 3.0156                 3.5745

                    142                    143                    144
                      A                      A                      A
 Frequencies --   3217.9703              3231.2502              3237.8843
 Red. masses --      1.0928                 1.0936                 1.0938
 Frc consts  --      6.6676                 6.7275                 6.7566
 IR Inten    --      2.6843                 0.7309                 1.6452

 - Thermochemistry -
 -------------------
 Temperature   298.150 Kelvin.  Pressure   1.00000 Atm.
 Atom     1 has atomic number  6 and mass  12.00000

 Molecular mass:   482.99839 amu.
 Principal axes and moments of inertia in atomic units:
                           1         2         3
     Eigenvalues --  ******************************
           X            0.99707   0.07418   0.01863
           Y           -0.07405   0.99723  -0.00750
           Z           -0.01913   0.00610   0.99980
 This molecule is an asymmetric top.
 Rotational symmetry number  1.
 Warning -- assumption of classical behavior for rotation
           may cause significant error
 Rotational temperatures (Kelvin)      0.00751     0.00604     0.00443
 Rotational constants (GHZ):           0.15638     0.12588     0.09235
    1 imaginary frequencies ignored.
 Zero-point vibrational energy    1011507.7 (Joules/Mol)
                                  241.75614 (Kcal/Mol)
 Warning -- explicit consideration of  42 degrees of freedom as
           vibrations may cause significant error
 Vibrational temperatures:     26.25    32.34    36.61    43.58    52.21
          (Kelvin)             61.87    70.12    86.72   106.43   118.06
                              125.24   136.61   144.46   149.63   155.22
                              172.26   181.44   226.73   258.15   271.87
                              289.76   304.28   342.87   378.13   395.48
                              429.76   452.72   472.44   496.16   503.06
                              538.70   550.03   566.08   576.25   588.12
                              617.52   660.09   680.38   696.02   821.33
                              881.53   891.03   899.99   906.20   936.39
                              964.63   976.09   994.64  1013.98  1044.01
                             1100.73  1119.27  1136.02  1192.94  1199.26
                             1207.88  1218.27  1221.37  1244.12  1274.27
                             1304.89  1342.18  1347.46  1370.36  1413.97
                             1414.94  1421.07  1428.04  1437.43  1448.83
                             1451.72  1454.95  1468.63  1492.63  1504.20
                             1507.78  1512.42  1563.00  1581.67  1595.89
                             1599.08  1644.91  1685.95  1693.16  1699.99
                             1706.13  1706.95  1715.51  1721.08  1740.91
                             1755.47  1762.30  1799.47  1810.72  1844.81
                             1884.18  1889.97  1894.83  1913.18  1931.51
                             1938.97  1961.09  1968.05  1986.46  1994.97
                             2024.38  2089.87  2119.85  2122.85  2124.52
                             2129.35  2135.57  2146.56  2155.00  2179.65
                             2212.46  2306.86  2335.42  2364.75  2366.61
                             2555.41  4286.82  4365.96  4374.22  4403.05
                             4440.85  4465.96  4482.12  4483.54  4493.22
                             4514.86  4533.77  4536.98  4546.11  4562.59
                             4577.35  4579.28  4595.67  4602.26  4612.21
                             4629.94  4649.05  4658.59

 Zero-point correction=                           0.385263 (Hartree/Particle)
 Thermal correction to Energy=                    0.413856
 Thermal correction to Enthalpy=                  0.414801
 Thermal correction to Gibbs Free Energy=         0.319557
 Sum of electronic and zero-point Energies=          -3683.606463
 Sum of electronic and thermal Energies=             -3683.577870
 Sum of electronic and thermal Enthalpies=           -3683.576926
 Sum of electronic and thermal Free Energies=        -3683.672169

                     E (Thermal)             CV                S
                      KCal/Mol        Cal/Mol-Kelvin    Cal/Mol-Kelvin
 Total                  259.699            103.884            200.458
 Electronic               0.000              0.000              3.561
 Translational            0.889              2.981             44.412
 Rotational               0.889              2.981             36.423
 Vibrational            257.921             97.922            116.062
 Vibration     1          0.593              1.986              6.816
 Vibration     2          0.593              1.985              6.402
 Vibration     3          0.593              1.985              6.156
 Vibration     4          0.594              1.984              5.810
 Vibration     5          0.594              1.982              5.452
 Vibration     6          0.595              1.980              5.116
 Vibration     7          0.595              1.978              4.868
 Vibration     8          0.597              1.973              4.448
 Vibration     9          0.599              1.966              4.045
 Vibration    10          0.600              1.961              3.841
 Vibration    11          0.601              1.958              3.725
 Vibration    12          0.603              1.953              3.555
 Vibration    13          0.604              1.949              3.446
 Vibration    14          0.605              1.946              3.378
 Vibration    15          0.606              1.943              3.307
 Vibration    16          0.609              1.933              3.105
 Vibration    17          0.611              1.927              3.005
 Vibration    18          0.621              1.894              2.579
 Vibration    19          0.629              1.868              2.334
 Vibration    20          0.633              1.855              2.238
 Vibration    21          0.638              1.838              2.120
 Vibration    22          0.643              1.823              2.031
 Vibration    23          0.656              1.782              1.815
 Vibration    24          0.670              1.741              1.643
 Vibration    25          0.677              1.720              1.565
 Vibration    26          0.692              1.676              1.424
 Vibration    27          0.702              1.646              1.338
 Vibration    28          0.712              1.619              1.268
 Vibration    29          0.723              1.586              1.190
 Vibration    30          0.727              1.576              1.168
 Vibration    31          0.746              1.525              1.062
 Vibration    32          0.752              1.508              1.030
 Vibration    33          0.761              1.484              0.987
 Vibration    34          0.766              1.469              0.961
 Vibration    35          0.773              1.451              0.931
 Vibration    36          0.791              1.407              0.861
 Vibration    37          0.817              1.341              0.770
 Vibration    38          0.830              1.310              0.730
 Vibration    39          0.840              1.286              0.700
 Vibration    40          0.927              1.094              0.503
 Vibration    41          0.972              1.005              0.428
 Vibration    42          0.979              0.991              0.418

 Optimization completed.
    -- Stationary point found.
 Normal termination of Gaussian 16 at Thu Jun 10 02:37:21 2021.
