 Gaussian 16, Revision A.03,
 Gaussian 16:  ES64L-G16RevA.03 25-Dec-2016

 ----------------------------------------------------------------------
 #p opt=(calcfc,ts,noeigentest,maxstep=5) freq=noraman b3lyp pop=none e
 mpiricaldispersion=gd3bj jul-cc-pvdz
 ----------------------------------------------------------------------

 -----
 title
 -----
 Symbolic Z-matrix:
 Charge =  0 Multiplicity = 6

 SCF Done:  E(UB3LYP) =  -3683.98974276     A.U. after   25 cycles
 Optimization completed.
    -- Stationary point found.
 Normal termination of Gaussian 16 at Sun Jun  6 18:25:52 2021.

 ----------------------------------------------------------------------
 #P Geom=AllCheck Guess=TCheck SCRF=Check GenChk UB3LYP/Jul-CC-pVDZ Fre
 q
 ----------------------------------------------------------------------

 Structure from the checkpoint file:  "/scratch/kwaneu.2864262.bmbhpcps002/Gau-64285.chk"
 -----
 title
 -----
 Charge =  0 Multiplicity = 6

                         Standard orientation:
 ---------------------------------------------------------------------
 Center     Atomic      Atomic             Coordinates (Angstroms)
 Number     Number       Type             X           Y           Z
 ---------------------------------------------------------------------
      1          6           0       -3.583556   -1.412738    0.253447
      2          6           0       -2.249577   -1.219709   -0.138718
      3          6           0       -1.827303   -1.746512   -1.368838
      4          6           0       -2.723790   -2.420069   -2.198536
      5          6           0       -4.053359   -2.597907   -1.805034
      6          6           0       -4.478784   -2.096072   -0.572201
      7          6           0       -1.237607   -0.533687    0.757992
      8          6           0       -1.894647    0.454104    1.801751
      9          6           0       -2.003816   -0.300488    3.146557
     10          6           0       -1.456624   -1.726524    2.919475
     11          6           0       -0.537603   -1.636560    1.692073
     12          6           0        0.768339   -1.003695    1.925999
     13          8           0       -0.202612    0.076793    0.060305
     14         26           0        0.736264    0.707469   -1.396622
     15         17           0       -0.592773    1.773676   -2.798472
     16         17           0        1.706281   -1.070542   -2.370220
     17         17           0        2.336135    2.009619   -0.525253
     18          1           0       -0.794776   -1.627067   -1.688375
     19          1           0       -2.378995   -2.801840   -3.159999
     20          1           0       -4.754747   -3.121471   -2.455847
     21          1           0       -5.513910   -2.226511   -0.254458
     22          1           0       -3.945213   -1.023786    1.204324
     23          1           0       -2.866061    0.768695    1.413124
     24          6           0       -1.042411    1.710852    1.908526
     25          1           0       -1.407921    0.225823    3.901010
     26          1           0       -3.038075   -0.327821    3.510907
     27          1           0       -0.946864   -2.128601    3.804346
     28          1           0       -2.264995   -2.424594    2.665565
     29          1           0       -0.455786   -2.578840    1.145701
     30          8           0       -1.434703    2.633309    1.034718
     31          8           0       -0.119073    1.852921    2.692973
     32          6           0       -0.613226    3.837298    0.942005
     33          6           0       -1.153341    4.660139   -0.206200
     34          1           0       -0.673522    4.359960    1.906294
     35          1           0        0.422829    3.521326    0.775146
     36          1           0       -0.550746    5.573991   -0.307575
     37          1           0       -1.092580    4.095599   -1.145213
     38          1           0       -2.198512    4.950153   -0.029055
     39          6           0        2.015299   -1.397162    1.419767
     40          6           0        3.115696   -0.511572    1.614643
     41          6           0        2.202754   -2.585133    0.656970
     42          6           0        4.353324   -0.806780    1.068462
     43          1           0        2.951407    0.417023    2.159990
     44          6           0        3.447968   -2.880171    0.135521
     45          1           0        1.362788   -3.250705    0.472772
     46          6           0        4.516969   -1.990696    0.336668
     47          1           0        5.184914   -0.113679    1.185422
     48          1           0        3.593716   -3.778870   -0.461678
     49          1           0        5.489310   -2.218512   -0.102618
     50          1           0        0.753833   -0.086953    2.523498
 ---------------------------------------------------------------------

 SCF Done:  E(UB3LYP) =  -3683.98974276     A.U. after    2 cycles

 Isotropic polarizability for W=    0.000000      355.65 Bohr**3.
 End of Minotr F.D. properties file   721 does not exist.

 ******    1 imaginary frequencies (negative Signs) ******

                      1                      2                      3
                      A                      A                      A
 Frequencies --   -111.0318                23.1679                24.9366
 Red. masses --      5.9775                 6.2560                 6.4776
 Frc consts  --      0.0434                 0.0020                 0.0024
 IR Inten    --     29.4247                 0.2966                 0.7329

                      4                      5                      6
                      A                      A                      A
 Frequencies --     30.4366                44.4311                53.2683
 Red. masses --      8.0577                 4.2141                 5.3252
 Frc consts  --      0.0044                 0.0049                 0.0089
 IR Inten    --      1.6380                 0.4828                 0.1551

                      7                      8                      9
                      A                      A                      A
 Frequencies --     58.1017                62.5512                68.6552
 Red. masses --      6.4196                 4.4315                 5.6002
 Frc consts  --      0.0128                 0.0102                 0.0156
 IR Inten    --      5.0342                 0.7437                 1.8344

                     10                     11                     12
                      A                      A                      A
 Frequencies --     78.9738                88.6446               100.9289
 Red. masses --      5.2907                 7.5109                11.6102
 Frc consts  --      0.0194                 0.0348                 0.0697
 IR Inten    --      4.4881                 1.3872                 1.9639

                     13                     14                     15
                      A                      A                      A
 Frequencies --    101.5783               107.7856               113.3937
 Red. masses --      7.9025                 6.4380                 4.9258
 Frc consts  --      0.0480                 0.0441                 0.0373
 IR Inten    --      1.3176                 1.4521                 2.9337

                     16                     17                     18
                      A                      A                      A
 Frequencies --    120.4069               126.7757               137.2403
 Red. masses --      9.2320                 8.8926                 3.4842
 Frc consts  --      0.0789                 0.0842                 0.0387
 IR Inten    --      2.7331                 4.8073                 6.5142

                     19                     20                     21
                      A                      A                      A
 Frequencies --    155.8456               166.4017               182.8692
 Red. masses --      3.9085                 3.2558                 4.5136
 Frc consts  --      0.0559                 0.0531                 0.0889
 IR Inten    --     10.3288                 5.3570                 3.4363

                     22                     23                     24
                      A                      A                      A
 Frequencies --    192.0074               212.1935               233.2090
 Red. masses --      4.0960                 3.2819                 4.7566
 Frc consts  --      0.0890                 0.0871                 0.1524
 IR Inten    --      9.0122                 5.3358                 0.1991

                     25                     26                     27
                      A                      A                      A
 Frequencies --    260.2226               267.6371               272.2666
 Red. masses --      2.5826                 2.3884                 4.5428
 Frc consts  --      0.1030                 0.1008                 0.1984
 IR Inten    --     11.2040                 3.4841                 0.9278

                     28                     29                     30
                      A                      A                      A
 Frequencies --    288.8139               325.2411               339.7070
 Red. masses --      3.1772                10.1498                 8.7976
 Frc consts  --      0.1561                 0.6326                 0.5982
 IR Inten    --      3.9509                 7.3316                15.3426

                     31                     32                     33
                      A                      A                      A
 Frequencies --    351.9438               361.0156               377.2038
 Red. masses --      6.8564                26.1296                 3.3126
 Frc consts  --      0.5004                 2.0065                 0.2777
 IR Inten    --     20.7155                68.3243                 7.8668

                     34                     35                     36
                      A                      A                      A
 Frequencies --    390.8869               398.4868               412.2301
 Red. masses --     30.8969                 3.5792                 2.9519
 Frc consts  --      2.7814                 0.3349                 0.2956
 IR Inten    --     85.6966                 2.8461                 0.0305

                     37                     38                     39
                      A                      A                      A
 Frequencies --    429.5028               441.3456               444.7012
 Red. masses --      4.1279                 3.6440                 4.0098
 Frc consts  --      0.4487                 0.4182                 0.4672
 IR Inten    --      1.8569                 4.8544                 2.4391

                     40                     41                     42
                      A                      A                      A
 Frequencies --    476.3855               548.0048               570.2493
 Red. masses --      3.4702                 3.3827                 4.5601
 Frc consts  --      0.4640                 0.5985                 0.8737
 IR Inten    --     14.4375                 3.7408                 8.7853

                     43                     44                     45
                      A                      A                      A
 Frequencies --    617.6997               626.0137               633.9430
 Red. masses --      6.2524                 5.6430                 5.4335
 Frc consts  --      1.4056                 1.3029                 1.2866
 IR Inten    --      6.0618                 7.7403                11.3932

                     46                     47                     48
                      A                      A                      A
 Frequencies --    645.7120               657.5336               693.4313
 Red. masses --      2.5266                 1.6522                 4.6044
 Frc consts  --      0.6207                 0.4209                 1.3044
 IR Inten    --     10.3790                42.2460                48.8842

                     49                     50                     51
                      A                      A                      A
 Frequencies --    705.5291               711.4881               738.7189
 Red. masses --      1.9002                 3.1320                 4.8770
 Frc consts  --      0.5573                 0.9341                 1.5680
 IR Inten    --     32.8064                29.2800                35.8915

                     52                     53                     54
                      A                      A                      A
 Frequencies --    762.6565               774.1458               804.0022
 Red. masses --      2.7660                 1.8815                 2.8086
 Frc consts  --      0.9479                 0.6643                 1.0697
 IR Inten    --     41.0717                18.9272                30.9164

                     55                     56                     57
                      A                      A                      A
 Frequencies --    815.8591               822.4309               836.7559
 Red. masses --      1.1894                 1.3165                 2.4944
 Frc consts  --      0.4665                 0.5247                 1.0290
 IR Inten    --      5.8745                 7.6725                 1.6349

                     58                     59                     60
                      A                      A                      A
 Frequencies --    847.1683               862.4752               868.8311
 Red. masses --      1.2504                 3.4460                 2.8976
 Frc consts  --      0.5287                 1.5103                 1.2887
 IR Inten    --      0.2301                 5.5133                16.6517

                     61                     62                     63
                      A                      A                      A
 Frequencies --    900.8405               923.5087               927.9093
 Red. masses --      3.0823                 2.9746                 1.8175
 Frc consts  --      1.4737                 1.4947                 0.9220
 IR Inten    --      5.5455                 7.9624                 4.9177

                     64                     65                     66
                      A                      A                      A
 Frequencies --    942.7230               953.7812               979.9670
 Red. masses --      2.1650                 1.3686                 1.9122
 Frc consts  --      1.1336                 0.7335                 1.0820
 IR Inten    --      7.0319                 1.5046                39.0514

                     67                     68                     69
                      A                      A                      A
 Frequencies --    983.8259               984.9482               999.8634
 Red. masses --      1.4704                 1.8301                 2.2084
 Frc consts  --      0.8385                 1.0461                 1.3008
 IR Inten    --      6.8988                20.6540                21.1460

                     70                     71                     72
                      A                      A                      A
 Frequencies --   1002.3273              1006.9374              1008.6444
 Red. masses --      4.0416                 2.6865                 1.6825
 Frc consts  --      2.3923                 1.6049                 1.0085
 IR Inten    --      2.9874                 4.8555                 1.2854

                     73                     74                     75
                      A                      A                      A
 Frequencies --   1014.9379              1020.0837              1040.2525
 Red. masses --      1.4502                 2.0088                 2.4328
 Frc consts  --      0.8801                 1.2315                 1.5511
 IR Inten    --      1.6703                15.6146                 7.6397

                     76                     77                     78
                      A                      A                      A
 Frequencies --   1042.8950              1053.0095              1067.2930
 Red. masses --      2.3741                 2.3078                 2.2063
 Frc consts  --      1.5214                 1.5077                 1.4808
 IR Inten    --     11.0826                 5.1424                 7.1118

                     79                     80                     81
                      A                      A                      A
 Frequencies --   1076.9371              1104.4148              1109.4772
 Red. masses --      2.2370                 2.0535                 1.6651
 Frc consts  --      1.5286                 1.4757                 1.2076
 IR Inten    --     21.5641                44.3939                 8.4573

                     82                     83                     84
                      A                      A                      A
 Frequencies --   1134.0705              1139.2944              1146.4706
 Red. masses --      2.0975                 2.1545                 2.6549
 Frc consts  --      1.5894                 1.6477                 2.0560
 IR Inten    --     16.3308                11.8492                93.6864

                     85                     86                     87
                      A                      A                      A
 Frequencies --   1173.9477              1174.9291              1176.7237
 Red. masses --      1.5367                 1.0948                 1.6770
 Frc consts  --      1.2478                 0.8905                 1.3681
 IR Inten    --      5.4352                 0.3148                 5.3672

                     88                     89                     90
                      A                      A                      A
 Frequencies --   1184.6811              1198.4247              1206.7508
 Red. masses --      1.0914                 1.1549                 1.1604
 Frc consts  --      0.9025                 0.9772                 0.9957
 IR Inten    --      4.0438                54.5883                 3.0777

                     91                     92                     93
                      A                      A                      A
 Frequencies --   1218.5289              1224.5762              1233.1974
 Red. masses --      1.4534                 1.5851                 1.7392
 Frc consts  --      1.2714                 1.4005                 1.5583
 IR Inten    --     10.5605                77.2139                41.3311

                     94                     95                     96
                      A                      A                      A
 Frequencies --   1247.7203              1281.4940              1291.0797
 Red. masses --      2.2779                 1.3356                 1.1506
 Frc consts  --      2.0894                 1.2923                 1.1300
 IR Inten    --    184.7291                20.3837                12.5934

                     97                     98                     99
                      A                      A                      A
 Frequencies --   1295.5107              1323.6794              1326.6658
 Red. masses --      1.7801                 1.4508                 1.4925
 Frc consts  --      1.7603                 1.4977                 1.5477
 IR Inten    --    177.7685                 9.1328                30.3715

                    100                    101                    102
                      A                      A                      A
 Frequencies --   1337.3554              1353.9087              1357.5612
 Red. masses --      1.7940                 1.4598                 1.5205
 Frc consts  --      1.8904                 1.5766                 1.6511
 IR Inten    --      7.4782                21.1771                92.0541

                    103                    104                    105
                      A                      A                      A
 Frequencies --   1362.3009              1369.8319              1396.1691
 Red. masses --      2.5681                 1.4633                 1.5622
 Frc consts  --      2.8081                 1.6178                 1.7942
 IR Inten    --      6.2572                50.4432                81.8127

                    106                    107                    108
                      A                      A                      A
 Frequencies --   1404.6628              1424.0941              1464.8567
 Red. masses --      5.4395                 1.6127                 2.2576
 Frc consts  --      6.3234                 1.9270                 2.8542
 IR Inten    --     53.6637                15.4399                36.1961

                    109                    110                    111
                      A                      A                      A
 Frequencies --   1470.2582              1474.7326              1481.9053
 Red. masses --      2.2941                 1.0381                 1.0863
 Frc consts  --      2.9218                 1.3302                 1.4055
 IR Inten    --     14.2026                 2.1224                 4.6636

                    112                    113                    114
                      A                      A                      A
 Frequencies --   1490.7158              1496.3685              1504.2593
 Red. masses --      1.0537                 1.1825                 1.6910
 Frc consts  --      1.3797                 1.5600                 2.2545
 IR Inten    --      1.0531                19.2330                12.3554

                    115                    116                    117
                      A                      A                      A
 Frequencies --   1508.2696              1521.5750              1564.3611
 Red. masses --      1.0908                 2.2038                 3.0964
 Frc consts  --      1.4621                 3.0061                 4.4646
 IR Inten    --      7.8397                 1.4540               231.3844

                    118                    119                    120
                      A                      A                      A
 Frequencies --   1598.6197              1623.7893              1644.6396
 Red. masses --      4.4752                 5.6129                 5.7641
 Frc consts  --      6.7383                 8.7195                 9.1859
 IR Inten    --      4.4122                 0.6600                49.9784

                    121                    122                    123
                      A                      A                      A
 Frequencies --   1647.8917              1745.5785              3038.4774
 Red. masses --      5.6853                10.5959                 1.0357
 Frc consts  --      9.0962                19.0225                 5.6335
 IR Inten    --    248.7801               174.8400                28.0487

                    124                    125                    126
                      A                      A                      A
 Frequencies --   3057.3998              3062.2108              3070.0705
 Red. masses --      1.0606                 1.0618                 1.0623
 Frc consts  --      5.8411                 5.8665                 5.8992
 IR Inten    --     18.3900                30.1287                35.9361

                    127                    128                    129
                      A                      A                      A
 Frequencies --   3099.0725              3109.1767              3118.5674
 Red. masses --      1.1055                 1.1027                 1.1016
 Frc consts  --      6.2555                 6.2805                 6.3122
 IR Inten    --      8.5750                13.3553                 5.8182

                    130                    131                    132
                      A                      A                      A
 Frequencies --   3125.5299              3127.3030              3132.2006
 Red. masses --      1.1012                 1.0899                 1.0884
 Frc consts  --      6.3383                 6.2803                 6.2912
 IR Inten    --      3.7249                31.9470                 7.9914

                    133                    134                    135
                      A                      A                      A
 Frequencies --   3139.9869              3141.4593              3169.6294
 Red. masses --      1.1058                 1.0892                 1.0848
 Frc consts  --      6.4235                 6.3329                 6.4213
 IR Inten    --     10.1906                12.6799                 0.4003

                    136                    137                    138
                      A                      A                      A
 Frequencies --   3180.6968              3184.5284              3190.3674
 Red. masses --      1.0888                 1.0881                 1.0926
 Frc consts  --      6.4902                 6.5015                 6.5521
 IR Inten    --      6.4902                 1.0907                19.0714

                    139                    140                    141
                      A                      A                      A
 Frequencies --   3197.8484              3202.8400              3206.3218
 Red. masses --      1.0972                 1.0894                 1.0923
 Frc consts  --      6.6110                 6.5845                 6.6164
 IR Inten    --     15.4078                 1.5413                 1.6937

                    142                    143                    144
                      A                      A                      A
 Frequencies --   3210.4984              3216.3928              3224.8367
 Red. masses --      1.0935                 1.0979                 1.0953
 Frc consts  --      6.6404                 6.6922                 6.7112
 IR Inten    --     13.1732                 2.4578                 1.0568

 - Thermochemistry -
 -------------------
 Temperature   298.150 Kelvin.  Pressure   1.00000 Atm.
 Atom     1 has atomic number  6 and mass  12.00000

 Molecular mass:   482.99839 amu.
 Principal axes and moments of inertia in atomic units:
                           1         2         3
     Eigenvalues --  ******************************
           X            0.99991  -0.01172   0.00672
           Y            0.01145   0.99915   0.03958
           Z           -0.00717  -0.03950   0.99919
 This molecule is an asymmetric top.
 Rotational symmetry number  1.
 Warning -- assumption of classical behavior for rotation
           may cause significant error
 Rotational temperatures (Kelvin)      0.00762     0.00643     0.00588
 Rotational constants (GHZ):           0.15886     0.13402     0.12249
    1 imaginary frequencies ignored.
 Zero-point vibrational energy    1013449.3 (Joules/Mol)
                                  242.22018 (Kcal/Mol)
 Warning -- explicit consideration of  42 degrees of freedom as
           vibrations may cause significant error
 Vibrational temperatures:     33.33    35.88    43.79    63.93    76.64
          (Kelvin)             83.60    90.00    98.78   113.63   127.54
                              145.21   146.15   155.08   163.15   173.24
                              182.40   197.46   224.23   239.41   263.11
                              276.26   305.30   335.54   374.40   385.07
                              391.73   415.54   467.95   488.76   506.37
                              519.42   542.71   562.40   573.33   593.11
                              617.96   635.00   639.83   685.41   788.46
                              820.46   888.73   900.69   912.10   929.04
                              946.04   997.69  1015.10  1023.67  1062.85
                             1097.29  1113.82  1156.78  1173.84  1183.29
                             1203.91  1218.89  1240.91  1250.05  1296.11
                             1328.72  1335.05  1356.37  1372.28  1409.95
                             1415.51  1417.12  1438.58  1442.13  1448.76
                             1451.21  1460.27  1467.67  1496.69  1500.49
                             1515.05  1535.60  1549.47  1589.01  1596.29
                             1631.67  1639.19  1649.52  1689.05  1690.46
                             1693.04  1704.49  1724.27  1736.25  1753.19
                             1761.89  1774.30  1795.19  1843.78  1857.58
                             1863.95  1904.48  1908.78  1924.16  1947.97
                             1953.23  1960.05  1970.88  2008.78  2021.00
                             2048.95  2107.60  2115.37  2121.81  2132.13
                             2144.81  2152.94  2164.29  2170.06  2189.21
                             2250.77  2300.06  2336.27  2366.27  2370.95
                             2511.50  4371.69  4398.92  4405.84  4417.15
                             4458.87  4473.41  4486.92  4496.94  4499.49
                             4506.54  4517.74  4519.86  4560.39  4576.31
                             4581.83  4590.23  4600.99  4608.17  4613.18
                             4619.19  4627.67  4639.82

 Zero-point correction=                           0.386002 (Hartree/Particle)
 Thermal correction to Energy=                    0.414491
 Thermal correction to Enthalpy=                  0.415435
 Thermal correction to Gibbs Free Energy=         0.322441
 Sum of electronic and zero-point Energies=          -3683.603740
 Sum of electronic and thermal Energies=             -3683.575252
 Sum of electronic and thermal Enthalpies=           -3683.574308
 Sum of electronic and thermal Free Energies=        -3683.667302

                     E (Thermal)             CV                S
                      KCal/Mol        Cal/Mol-Kelvin    Cal/Mol-Kelvin
 Total                  260.097            104.056            195.723
 Electronic               0.000              0.000              3.561
 Translational            0.889              2.981             44.412
 Rotational               0.889              2.981             36.065
 Vibrational            258.319             98.094            111.685
 Vibration     1          0.593              1.985              6.342
 Vibration     2          0.593              1.985              6.196
 Vibration     3          0.594              1.984              5.801
 Vibration     4          0.595              1.980              5.051
 Vibration     5          0.596              1.976              4.692
 Vibration     6          0.596              1.974              4.521
 Vibration     7          0.597              1.972              4.375
 Vibration     8          0.598              1.969              4.192
 Vibration     9          0.600              1.963              3.916
 Vibration    10          0.601              1.957              3.690
 Vibration    11          0.604              1.948              3.436
 Vibration    12          0.604              1.948              3.424
 Vibration    13          0.606              1.943              3.308
 Vibration    14          0.607              1.938              3.210
 Vibration    15          0.609              1.932              3.094
 Vibration    16          0.611              1.926              2.994
 Vibration    17          0.614              1.916              2.842
 Vibration    18          0.620              1.896              2.600
 Vibration    19          0.624              1.884              2.476
 Vibration    20          0.630              1.863              2.299
 Vibration    21          0.634              1.851              2.208
 Vibration    22          0.643              1.822              2.025
 Vibration    23          0.654              1.790              1.854
 Vibration    24          0.668              1.745              1.660
 Vibration    25          0.673              1.733              1.611
 Vibration    26          0.675              1.724              1.582
 Vibration    27          0.685              1.695              1.481
 Vibration    28          0.709              1.625              1.284
 Vibration    29          0.720              1.596              1.214
 Vibration    30          0.728              1.571              1.157
 Vibration    31          0.735              1.553              1.118
 Vibration    32          0.748              1.519              1.050
 Vibration    33          0.759              1.490              0.997
 Vibration    34          0.765              1.473              0.968
 Vibration    35          0.776              1.444              0.919
 Vibration    36          0.791              1.406              0.860
 Vibration    37          0.801              1.380              0.822
 Vibration    38          0.804              1.373              0.812
 Vibration    39          0.833              1.302              0.720
 Vibration    40          0.903              1.144              0.548
 Vibration    41          0.926              1.096              0.504
 Vibration    42          0.977              0.994              0.420

 Optimization completed.
    -- Stationary point found.
 Normal termination of Gaussian 16 at Mon Jun  7 07:07:35 2021.
