 Gaussian 16, Revision A.03,
 Gaussian 16:  ES64L-G16RevA.03 25-Dec-2016

 -------------------------------------------------------------------
 #p freq=noraman b3lyp jul-cc-pvdz pop=cm5 empiricaldispersion=gd3bj
 -------------------------------------------------------------------

 -----
 title
 -----
 Symbolic Z-matrix:
 Charge =  0 Multiplicity = 6

                         Standard orientation:
 ---------------------------------------------------------------------
 Center     Atomic      Atomic             Coordinates (Angstroms)
 Number     Number       Type             X           Y           Z
 ---------------------------------------------------------------------
      1          6           0       -2.779059   -0.472096   -0.464611
      2          6           0       -1.537002   -0.289665    0.164887
      3          6           0       -1.512067   -0.007572    1.536785
      4          6           0       -2.700771    0.083895    2.264099
      5          6           0       -3.933344   -0.103602    1.631747
      6          6           0       -3.967297   -0.385447    0.262632
      7          6           0       -0.215835   -0.404190   -0.587060
      8          6           0        0.076169   -1.791812   -1.322741
      9          6           0        0.414670   -1.507492   -2.792275
     10          6           0        0.741773   -0.013839   -2.876410
     11          6           0       -0.272409    0.638940   -1.937202
     12          6           0        0.040895    1.923141   -1.393360
     13          8           0        0.817829   -0.061988    0.213165
     14         26           0        2.638132   -0.021575    0.574702
     15         17           0        3.645341   -1.486908   -0.761210
     16         17           0        2.892221   -0.435848    2.725408
     17         17           0        3.242371    2.084239    0.021982
     18          1           0       -0.549574    0.122276    2.026662
     19          1           0       -2.660590    0.295093    3.333341
     20          1           0       -4.860986   -0.036785    2.201673
     21          1           0       -4.921175   -0.544236   -0.242033
     22          1           0       -2.832639   -0.725998   -1.522749
     23          1           0        0.950254   -2.174278   -0.785252
     24          6           0       -1.044644   -2.797266   -1.140555
     25          1           0        1.255270   -2.122874   -3.131676
     26          1           0       -0.457687   -1.751135   -3.412848
     27          1           0        1.760345    0.186557   -2.522875
     28          1           0        0.651116    0.382338   -3.895981
     29          1           0       -1.294301    0.543595   -2.312832
     30          8           0       -1.030815   -3.291049    0.107647
     31          8           0       -1.849304   -3.122784   -1.991018
     32          6           0       -2.136727   -4.151082    0.481486
     33          6           0       -2.047433   -4.364203    1.977785
     34          1           0       -3.069974   -3.651162    0.191506
     35          1           0       -2.056803   -5.087474   -0.087050
     36          1           0       -2.872809   -5.011619    2.306621
     37          1           0       -1.097875   -4.842650    2.252480
     38          1           0       -2.123295   -3.403699    2.505007
     39          6           0       -0.846010    2.866567   -0.834508
     40          6           0       -0.277660    3.963022   -0.124843
     41          6           0       -2.260863    2.720860   -0.872086
     42          6           0       -1.094816    4.877797    0.521647
     43          1           0        0.809142    4.043780   -0.073585
     44          6           0       -3.067296    3.629818   -0.207512
     45          1           0       -2.706842    1.888481   -1.408163
     46          6           0       -2.486575    4.706910    0.482269
     47          1           0       -0.660455    5.712659    1.070652
     48          1           0       -4.150382    3.512189   -0.219643
     49          1           0       -3.130344    5.421913    0.997264
     50          1           0        1.105423    2.129250   -1.237253
 ---------------------------------------------------------------------

 SCF Done:  E(UB3LYP) =  -3683.99051112     A.U. after   26 cycles

 The electronic state is 6-A.
 Alpha  occ. eigenvalues -- -256.17408-101.49543-101.49360-101.48876 -30.16837
 Alpha  occ. eigenvalues --  -26.02156 -26.02059 -26.01983 -19.19905 -19.14773
 Alpha  occ. eigenvalues --  -19.14660 -10.32347 -10.30526 -10.28699 -10.26533
 Alpha  occ. eigenvalues --  -10.26079 -10.25977 -10.25921 -10.25009 -10.24963
 Alpha  occ. eigenvalues --  -10.24861 -10.24115 -10.22181 -10.21799 -10.21761
 Alpha  occ. eigenvalues --  -10.21724 -10.21585 -10.21401 -10.21021 -10.20876
 Alpha  occ. eigenvalues --  -10.19770 -10.18996  -9.41236  -9.41057  -9.40594
 Alpha  occ. eigenvalues --   -7.17105  -7.16923  -7.16787  -7.16764  -7.16615
 Alpha  occ. eigenvalues --   -7.16599  -7.16463  -7.16153  -7.16128  -3.64573
 Alpha  occ. eigenvalues --   -2.42167  -2.41866  -2.41763  -1.11833  -1.03742
 Alpha  occ. eigenvalues --   -1.03167  -0.92764  -0.88636  -0.87539  -0.84140
 Alpha  occ. eigenvalues --   -0.81243  -0.79844  -0.78731  -0.77586  -0.77257
 Alpha  occ. eigenvalues --   -0.77208  -0.76584  -0.76194  -0.73318  -0.70248
 Alpha  occ. eigenvalues --   -0.66960  -0.66513  -0.64562  -0.63346  -0.62199
 Alpha  occ. eigenvalues --   -0.60432  -0.59417  -0.57591  -0.57004  -0.54993
 Alpha  occ. eigenvalues --   -0.53451  -0.52954  -0.51940  -0.50980  -0.50365
 Alpha  occ. eigenvalues --   -0.49580  -0.48834  -0.48428  -0.47872  -0.47483
 Alpha  occ. eigenvalues --   -0.47143  -0.46243  -0.45346  -0.44907  -0.44775
 Alpha  occ. eigenvalues --   -0.44696  -0.44237  -0.44096  -0.43759  -0.42865
 Alpha  occ. eigenvalues --   -0.42416  -0.41848  -0.41250  -0.40890  -0.40418
 Alpha  occ. eigenvalues --   -0.39983  -0.39422  -0.38665  -0.37868  -0.37653
 Alpha  occ. eigenvalues --   -0.37275  -0.36745  -0.36657  -0.35818  -0.35114
 Alpha  occ. eigenvalues --   -0.34251  -0.33602  -0.32015  -0.31798  -0.31683
 Alpha  occ. eigenvalues --   -0.31506  -0.29844  -0.28885  -0.28443  -0.28151
 Alpha  occ. eigenvalues --   -0.27909  -0.27843  -0.27682  -0.27464  -0.27115
 Alpha  occ. eigenvalues --   -0.26489  -0.26443
 Alpha virt. eigenvalues --   -0.16773  -0.06906  -0.05288  -0.04026  -0.03706
 Alpha virt. eigenvalues --   -0.02884  -0.01504  -0.01066  -0.00885  -0.00463
 Alpha virt. eigenvalues --    0.00519   0.00785   0.01073   0.01185   0.01507

  Beta  occ. eigenvalues -- -256.17222-101.49386-101.49172-101.48683 -30.07928
  Beta  occ. eigenvalues --  -25.94664 -25.94653 -25.94602 -19.19904 -19.14769
  Beta  occ. eigenvalues --  -19.13995 -10.32347 -10.30508 -10.28689 -10.26530
  Beta  occ. eigenvalues --  -10.26080 -10.25974 -10.25918 -10.25010 -10.24963
  Beta  occ. eigenvalues --  -10.24863 -10.24096 -10.22161 -10.21799 -10.21761
  Beta  occ. eigenvalues --  -10.21722 -10.21568 -10.21400 -10.21023 -10.20876
  Beta  occ. eigenvalues --  -10.19769 -10.18996  -9.41081  -9.40873  -9.40406
  Beta  occ. eigenvalues --   -7.16824  -7.16615  -7.16594  -7.16557  -7.16360
  Beta  occ. eigenvalues --   -7.16346  -7.16158  -7.15877  -7.15874  -3.43811
  Beta  occ. eigenvalues --   -2.20113  -2.20070  -2.19990  -1.11830  -1.03163
  Beta  occ. eigenvalues --   -1.02476  -0.92745  -0.88531  -0.87476  -0.84094
  Beta  occ. eigenvalues --   -0.81239  -0.79823  -0.78645  -0.77561  -0.77226
  Beta  occ. eigenvalues --   -0.76133  -0.75385  -0.74880  -0.73270  -0.70150
  Beta  occ. eigenvalues --   -0.66894  -0.66449  -0.64521  -0.63299  -0.62164
  Beta  occ. eigenvalues --   -0.60412  -0.59049  -0.57571  -0.56804  -0.54849
  Beta  occ. eigenvalues --   -0.53119  -0.52794  -0.51667  -0.50817  -0.50139
  Beta  occ. eigenvalues --   -0.49180  -0.48627  -0.48390  -0.47799  -0.47208
  Beta  occ. eigenvalues --   -0.46885  -0.45772  -0.44608  -0.44417  -0.43788
  Beta  occ. eigenvalues --   -0.42563  -0.42030  -0.41457  -0.41311  -0.40421
  Beta  occ. eigenvalues --   -0.40015  -0.39470  -0.38651  -0.37862  -0.37614
  Beta  occ. eigenvalues --   -0.37274  -0.36705  -0.36580  -0.35805  -0.35286
  Beta  occ. eigenvalues --   -0.34790  -0.33634  -0.32883  -0.32560  -0.31725
  Beta  occ. eigenvalues --   -0.31666  -0.31005  -0.30419  -0.30076  -0.29739
  Beta  occ. eigenvalues --   -0.29557  -0.28495  -0.28023  -0.27646  -0.27002
  Beta  occ. eigenvalues --   -0.26638  -0.26529
  Beta virt. eigenvalues --   -0.16805  -0.11222  -0.11150  -0.10242  -0.10026
  Beta virt. eigenvalues --   -0.09109  -0.06891  -0.05231  -0.04000  -0.03686
  Beta virt. eigenvalues --   -0.02873  -0.01496  -0.01016  -0.00860  -0.00441

 Mulliken charges and spin densities:
               1          2
     1  C   -0.578916   0.000926
     2  C    2.368736  -0.008359
     3  C   -0.803068  -0.001503
     4  C    0.027053   0.005537
     5  C    0.294149  -0.001327
     6  C    0.104706   0.001804
     7  C   -1.214896   0.042980
     8  C    1.088131  -0.016830
     9  C    0.669720   0.002789
    10  C    0.685896  -0.000760
    11  C   -0.361548   0.019177
    12  C   -0.043135   0.000585
    13  O   -0.655785   0.200842
    14  Fe   0.654920   4.033773
    15  Cl  -0.454681   0.247253
    16  Cl  -0.430505   0.265062
    17  Cl  -0.481308   0.203922
    18  H   -0.177616   0.000331
    19  H   -0.174543  -0.000006
    20  H   -0.177003   0.000035
    21  H   -0.185709   0.000195
    22  H   -0.251289  -0.000028
    23  H   -0.207092   0.001198
    24  C    0.632073   0.001742
    25  H   -0.124132   0.000017
    26  H   -0.104491  -0.000020
    27  H   -0.018456   0.000492
    28  H   -0.162557   0.000462
    29  H   -0.243954   0.000043
    30  O   -0.658058  -0.000740
    31  O   -0.581554   0.001018
    32  C    0.428195  -0.000149
    33  C    0.099829   0.000097
    34  H   -0.046274  -0.000000
    35  H   -0.066386  -0.000003
    36  H   -0.019427   0.000000
    37  H    0.016186   0.000006
    38  H    0.015229   0.000009
    39  C    2.496931  -0.005529
    40  C   -0.316551   0.002529
    41  C    0.069355   0.002781
    42  C   -0.084143  -0.001632
    43  H   -0.173166   0.000026
    44  C   -0.100353  -0.002035
    45  H   -0.307342  -0.000034
    46  C    0.272327   0.003418
    47  H   -0.161347   0.000025
    48  H   -0.177702   0.000011
    49  H   -0.147683  -0.000056
    50  H   -0.232765  -0.000074
 Sum of Mulliken charges =  -0.00000   5.00000

 Dipole moment (field-independent basis, Debye):
    X=            -12.2632    Y=              6.0644    Z=             -2.0296  Tot=             13.8305
 Quadrupole moment (field-independent basis, Debye-Ang):
   XX=           -211.9235   YY=           -171.7812   ZZ=           -199.7071
   XY=            -11.2122   XZ=            -14.2149   YZ=             -3.9787

  Exact polarizability: 374.060 -22.174 393.496 -14.649  16.837 309.181
 Approx polarizability: 587.588 -29.367 600.483 -20.204  53.827 544.817

                      1                      2                      3
                      A                      A                      A
 Frequencies --      7.8996                15.3138                17.5844
 Red. masses --      3.4081                 4.5545                12.4987
 Frc consts  --      0.0001                 0.0006                 0.0023
 IR Inten    --      0.7027                 0.3394                 0.5980

                      4                      5                      6
                      A                      A                      A
 Frequencies --     22.1862                31.1835                39.0431
 Red. masses --      5.6087                 6.7869                 7.6620
 Frc consts  --      0.0016                 0.0039                 0.0069
 IR Inten    --      4.4978                 0.2640                 0.4942

                      7                      8                      9
                      A                      A                      A
 Frequencies --     51.0234                64.9364                72.0548
 Red. masses --      3.7885                 5.2931                 3.6802
 Frc consts  --      0.0058                 0.0132                 0.0113
 IR Inten    --      0.1861                 1.5380                 0.1283

                     10                     11                     12
                      A                      A                      A
 Frequencies --     82.3458                88.3820                96.9578
 Red. masses --      6.2777                11.8641                11.2150
 Frc consts  --      0.0251                 0.0546                 0.0621
 IR Inten    --      1.1510                 0.1999                 1.0433

                     13                     14                     15
                      A                      A                      A
 Frequencies --    100.3036               108.7962               117.1970
 Red. masses --      4.7830                 4.5800                13.4011
 Frc consts  --      0.0284                 0.0319                 0.1084
 IR Inten    --      5.8264                 0.8413                 5.0145

                     16                     17                     18
                      A                      A                      A
 Frequencies --    119.8576               125.4235               138.3814
 Red. masses --     10.6434                 7.0503                 6.7710
 Frc consts  --      0.0901                 0.0653                 0.0764
 IR Inten    --      3.4995                19.2091                42.1368

                     19                     20                     21
                      A                      A                      A
 Frequencies --    160.4319               162.7604               196.1740
 Red. masses --      4.2419                 3.5327                 4.0444
 Frc consts  --      0.0643                 0.0551                 0.0917
 IR Inten    --     33.9037                 0.5687                17.4638

                     22                     23                     24
                      A                      A                      A
 Frequencies --    208.0034               217.1804               246.7315
 Red. masses --      4.3563                 2.9891                 4.5608
 Frc consts  --      0.1110                 0.0831                 0.1636
 IR Inten    --     92.6894                 5.2783                42.2183

                     25                     26                     27
                      A                      A                      A
 Frequencies --    262.7932               267.2412               282.8119
 Red. masses --      1.5829                 5.0914                 4.9741
 Frc consts  --      0.0644                 0.2142                 0.2344
 IR Inten    --      0.6910                 4.3986                23.9251

                     28                     29                     30
                      A                      A                      A
 Frequencies --    310.4072               331.7857               343.2360
 Red. masses --      4.7828                14.4280                 4.2397
 Frc consts  --      0.2715                 0.9358                 0.2943
 IR Inten    --      2.9558                41.7336                 4.6502

                     31                     32                     33
                      A                      A                      A
 Frequencies --    363.2846               367.9252               375.8226
 Red. masses --      5.6005                24.9644                 3.3045
 Frc consts  --      0.4355                 1.9911                 0.2750
 IR Inten    --     59.4962                78.3970                55.9099

                     34                     35                     36
                      A                      A                      A
 Frequencies --    388.4917               397.7909               417.5004
 Red. masses --      3.9428                38.1987                 3.2070
 Frc consts  --      0.3506                 3.5613                 0.3294
 IR Inten    --     43.2462                84.9167                33.3195

                     37                     38                     39
                      A                      A                      A
 Frequencies --    422.4875               427.7320               433.7187
 Red. masses --      4.1546                 3.3661                 4.4806
 Frc consts  --      0.4369                 0.3628                 0.4966
 IR Inten    --      4.2177                35.3392                36.0026

                     40                     41                     42
                      A                      A                      A
 Frequencies --    485.9867               499.2770               556.0926
 Red. masses --      2.4799                 3.9316                 3.7132
 Frc consts  --      0.3451                 0.5774                 0.6765
 IR Inten    --     45.0205                20.8885                62.8966

                     43                     44                     45
                      A                      A                      A
 Frequencies --    575.7945               601.1404               620.8927
 Red. masses --      2.9348                 6.0301                 5.9057
 Frc consts  --      0.5733                 1.2839                 1.3414
 IR Inten    --     32.1360                31.4102                 4.4499

                     46                     47                     48
                      A                      A                      A
 Frequencies --    624.6106               629.9666               667.6126
 Red. masses --      5.2652                 6.1692                 2.0766
 Frc consts  --      1.2103                 1.4425                 0.5453
 IR Inten    --     10.4375                 2.2706                14.3580

                     49                     50                     51
                      A                      A                      A
 Frequencies --    681.2772               708.6345               718.5958
 Red. masses --      3.0636                 2.9195                 2.1189
 Frc consts  --      0.8378                 0.8638                 0.6446
 IR Inten    --    156.7003                28.1264                71.3248

                     52                     53                     54
                      A                      A                      A
 Frequencies --    765.9949               772.2908               786.3174
 Red. masses --      2.6523                 1.7867                 3.1649
 Frc consts  --      0.9169                 0.6279                 1.1529
 IR Inten    --      4.1863                29.9584                33.8802

                     55                     56                     57
                      A                      A                      A
 Frequencies --    809.8026               821.7891               836.8695
 Red. masses --      1.1947                 4.3676                 1.3158
 Frc consts  --      0.4616                 1.7379                 0.5430
 IR Inten    --      1.7569                71.1231                 8.5638

                     58                     59                     60
                      A                      A                      A
 Frequencies --    852.9209               860.4240               869.6431
 Red. masses --      3.8069                 1.2515                 2.3114
 Frc consts  --      1.6317                 0.5459                 1.0299
 IR Inten    --     12.2228                 2.0473                20.6233

                     61                     62                     63
                      A                      A                      A
 Frequencies --    891.3910               917.4830               935.7645
 Red. masses --      2.1455                 2.4859                 1.7660
 Frc consts  --      1.0044                 1.2329                 0.9111
 IR Inten    --      1.8535                 5.0971                 7.7073

                     64                     65                     66
                      A                      A                      A
 Frequencies --    953.7281               959.5935               989.9807
 Red. masses --      1.6135                 1.6011                 1.7727
 Frc consts  --      0.8647                 0.8687                 1.0236
 IR Inten    --      1.4338                 2.1214                 7.4576

                     67                     68                     69
                      A                      A                      A
 Frequencies --    990.5318               992.9852               999.2087
 Red. masses --      1.5181                 2.2350                 4.3454
 Frc consts  --      0.8776                 1.2984                 2.5562
 IR Inten    --      1.7923                21.9222                 1.6337

                     70                     71                     72
                      A                      A                      A
 Frequencies --   1002.6997              1004.2559              1013.8506
 Red. masses --      2.0749                 1.5134                 4.0419
 Frc consts  --      1.2291                 0.8993                 2.4478
 IR Inten    --     20.1422                11.1893                 4.6126

                     73                     74                     75
                      A                      A                      A
 Frequencies --   1015.7004              1035.1367              1039.7582
 Red. masses --      1.3951                 1.8939                 2.6225
 Frc consts  --      0.8480                 1.1956                 1.6705
 IR Inten    --      0.7966                10.6122                22.0223

                     76                     77                     78
                      A                      A                      A
 Frequencies --   1041.8265              1049.3836              1053.3354
 Red. masses --      2.1484                 1.7258                 2.2204
 Frc consts  --      1.3739                 1.1197                 1.4515
 IR Inten    --      5.0922               215.1712                21.1028

                     79                     80                     81
                      A                      A                      A
 Frequencies --   1061.6656              1103.7492              1108.7910
 Red. masses --      2.3623                 1.5633                 1.6385
 Frc consts  --      1.5688                 1.1221                 1.1869
 IR Inten    --    101.5936                 6.8108                13.7670

                     82                     83                     84
                      A                      A                      A
 Frequencies --   1124.7076              1134.5665              1163.5517
 Red. masses --      2.5842                 2.1989                 1.7837
 Frc consts  --      1.9260                 1.6677                 1.4228
 IR Inten    --     54.2812                14.8894                42.8451

                     85                     86                     87
                      A                      A                      A
 Frequencies --   1170.9332              1173.0529              1182.4982
 Red. masses --      1.5630                 1.0864                 1.0974
 Frc consts  --      1.2626                 0.8808                 0.9041
 IR Inten    --      3.5898                 0.6930                 9.8326

                     88                     89                     90
                      A                      A                      A
 Frequencies --   1189.5740              1197.2018              1202.1983
 Red. masses --      1.4924                 1.4274                 1.1517
 Frc consts  --      1.2443                 1.2054                 0.9807
 IR Inten    --     98.4078                17.3086                40.5341

                     91                     92                     93
                      A                      A                      A
 Frequencies --   1204.8873              1218.3623              1222.8314
 Red. masses --      1.8789                 2.1409                 1.7715
 Frc consts  --      1.6071                 1.8724                 1.5608
 IR Inten    --    155.1886                75.9227               139.8012

                     94                     95                     96
                      A                      A                      A
 Frequencies --   1248.4228              1284.0860              1297.5924
 Red. masses --      1.8912                 1.1036                 1.4631
 Frc consts  --      1.7366                 1.0722                 1.4514
 IR Inten    --    106.0132                 1.0026                43.2872

                     97                     98                     99
                      A                      A                      A
 Frequencies --   1302.9767              1304.4097              1324.7537
 Red. masses --      1.5127                 1.6549                 1.4748
 Frc consts  --      1.5131                 1.6590                 1.5249
 IR Inten    --     75.4388               121.8807                91.3135

                    100                    101                    102
                      A                      A                      A
 Frequencies --   1335.8539              1355.8563              1361.8559
 Red. masses --      1.5462                 1.5210                 4.1007
 Frc consts  --      1.6257                 1.6475                 4.4809
 IR Inten    --     12.9516                42.1012                 0.9406

                    103                    104                    105
                      A                      A                      A
 Frequencies --   1365.8049              1374.9096              1388.4711
 Red. masses --      1.3938                 1.5974                 1.5579
 Frc consts  --      1.5319                 1.7791                 1.7695
 IR Inten    --     34.2722                 5.5514                74.4719

                    106                    107                    108
                      A                      A                      A
 Frequencies --   1397.6963              1416.8842              1465.6302
 Red. masses --      4.1396                 1.5091                 2.2850
 Frc consts  --      4.7646                 1.7850                 2.8919
 IR Inten    --     40.6055                11.3712                35.1838

                    109                    110                    111
                      A                      A                      A
 Frequencies --   1470.7999              1474.9915              1481.3663
 Red. masses --      2.3110                 1.0414                 1.0819
 Frc consts  --      2.9455                 1.3349                 1.3988
 IR Inten    --     10.4918                 3.5941                16.7708

                    112                    113                    114
                      A                      A                      A
 Frequencies --   1486.2860              1496.0477              1506.5321
 Red. masses --      1.0506                 1.1130                 1.0874
 Frc consts  --      1.3673                 1.4676                 1.4541
 IR Inten    --      0.3568                10.3673                 8.9679

                    115                    116                    117
                      A                      A                      A
 Frequencies --   1508.9131              1516.7713              1572.1530
 Red. masses --      2.0039                 2.1999                 3.2543
 Frc consts  --      2.6882                 2.9818                 4.7391
 IR Inten    --     11.4068                 7.3084               230.0218

                    118                    119                    120
                      A                      A                      A
 Frequencies --   1600.4834              1624.3162              1642.4992
 Red. masses --      4.5091                 5.7996                 5.7500
 Frc consts  --      6.8052                 9.0155                 9.1396
 IR Inten    --      9.6879                 2.0014                26.5679

                    121                    122                    123
                      A                      A                      A
 Frequencies --   1643.8436              1762.6077              3039.7280
 Red. masses --      5.5870                11.6120                 1.0349
 Frc consts  --      8.8950                21.2554                 5.6340
 IR Inten    --    183.2636               201.3791                14.6632

                    124                    125                    126
                      A                      A                      A
 Frequencies --   3059.1286              3062.3319              3066.1404
 Red. masses --      1.0580                 1.0604                 1.0628
 Frc consts  --      5.8335                 5.8592                 5.8870
 IR Inten    --     17.3090                 9.4165                21.7543

                    127                    128                    129
                      A                      A                      A
 Frequencies --   3103.4123              3103.9950              3110.9652
 Red. masses --      1.0860                 1.1071                 1.0984
 Frc consts  --      6.1623                 6.2844                 6.2634
 IR Inten    --     10.3302                 3.1655                11.8333

                    130                    131                    132
                      A                      A                      A
 Frequencies --   3115.2565              3117.3275              3125.6750
 Red. masses --      1.0952                 1.1012                 1.0997
 Frc consts  --      6.2621                 6.3049                 6.3298
 IR Inten    --     54.7455                23.6801                 6.7777

                    133                    134                    135
                      A                      A                      A
 Frequencies --   3130.9864              3134.2069              3166.9102
 Red. masses --      1.1058                 1.0910                 1.0852
 Frc consts  --      6.3867                 6.3142                 6.4126
 IR Inten    --     31.9141                 1.5896                 0.5743

                    136                    137                    138
                      A                      A                      A
 Frequencies --   3176.8723              3179.6361              3186.2187
 Red. masses --      1.0890                 1.0873                 1.0929
 Frc consts  --      6.4756                 6.4767                 6.5373
 IR Inten    --      6.4853                 1.2607                 9.1150

                    139                    140                    141
                      A                      A                      A
 Frequencies --   3188.8073              3194.2107              3200.0709
 Red. masses --      1.0914                 1.0980                 1.0931
 Frc consts  --      6.5388                 6.6003                 6.5950
 IR Inten    --      3.4449                 9.3971                 1.6367

                    142                    143                    144
                      A                      A                      A
 Frequencies --   3207.1782              3216.5719              3238.5318
 Red. masses --      1.0981                 1.0932                 1.0924
 Frc consts  --      6.6551                 6.6638                 6.7501
 IR Inten    --      7.3915                 5.0526                 1.8006

 - Thermochemistry -
 -------------------
 Temperature   298.150 Kelvin.  Pressure   1.00000 Atm.
 Atom     1 has atomic number  6 and mass  12.00000

 Molecular mass:   482.99839 amu.
 Principal axes and moments of inertia in atomic units:
                           1         2         3
     Eigenvalues --  ******************************
           X            0.99769   0.06255  -0.02668
           Y           -0.06279   0.99799  -0.00814
           Z            0.02612   0.00980   0.99961
 This molecule is an asymmetric top.
 Rotational symmetry number  1.
 Warning -- assumption of classical behavior for rotation
           may cause significant error
 Rotational temperatures (Kelvin)      0.00698     0.00656     0.00461
 Rotational constants (GHZ):           0.14554     0.13666     0.09615
 Zero-point vibrational energy    1011510.1 (Joules/Mol)
                                  241.75670 (Kcal/Mol)
 Warning -- explicit consideration of  44 degrees of freedom as
           vibrations may cause significant error
 Vibrational temperatures:     11.37    22.03    25.30    31.92    44.87
          (Kelvin)             56.17    73.41    93.43   103.67   118.48
                              127.16   139.50   144.31   156.53   168.62
                              172.45   180.46   199.10   230.83   234.18
                              282.25   299.27   312.47   354.99   378.10
                              384.50   406.90   446.61   477.37   493.84
                              522.69   529.36   540.72   558.95   572.33
                              600.69   607.87   615.41   624.02   699.23
                              718.35   800.09   828.44   864.91   893.33
                              898.68   906.38   960.55   980.21  1019.57
                             1033.90  1102.10  1111.15  1131.34  1165.13
                             1182.37  1204.07  1227.16  1237.96  1251.22
                             1282.51  1320.05  1346.36  1372.20  1380.64
                             1424.36  1425.15  1428.68  1437.64  1442.66
                             1444.90  1458.70  1461.37  1489.33  1495.98
                             1498.96  1509.83  1515.51  1527.50  1588.05
                             1595.30  1618.20  1632.39  1674.09  1684.71
                             1687.76  1701.35  1711.53  1722.51  1729.70
                             1733.56  1752.95  1759.38  1796.20  1847.51
                             1866.95  1874.69  1876.75  1906.03  1922.00
                             1950.77  1959.41  1965.09  1978.19  1997.70
                             2010.97  2038.58  2108.71  2116.15  2122.18
                             2131.36  2138.43  2152.48  2167.56  2170.99
                             2182.30  2261.98  2302.74  2337.03  2363.19
                             2365.12  2536.00  4373.49  4401.40  4406.01
                             4411.49  4465.12  4465.96  4475.99  4482.16
                             4485.14  4497.15  4504.79  4509.42  4556.48
                             4570.81  4574.79  4584.26  4587.98  4595.76
                             4604.19  4614.41  4627.93  4659.52

 Zero-point correction=                           0.385264 (Hartree/Particle)
 Thermal correction to Energy=                    0.414800
 Thermal correction to Enthalpy=                  0.415744
 Thermal correction to Gibbs Free Energy=         0.317024
 Sum of electronic and zero-point Energies=          -3683.605247
 Sum of electronic and thermal Energies=             -3683.575711
 Sum of electronic and thermal Enthalpies=           -3683.574767
 Sum of electronic and thermal Free Energies=        -3683.673487

                     E (Thermal)             CV                S
                      KCal/Mol        Cal/Mol-Kelvin    Cal/Mol-Kelvin
 Total                  260.291            106.482            207.774
 Electronic               0.000              0.000              3.561
 Translational            0.889              2.981             44.412
 Rotational               0.889              2.981             36.373
 Vibrational            258.514            100.520            123.429
 Vibration     1          0.593              1.987              8.479
 Vibration     2          0.593              1.986              7.164
 Vibration     3          0.593              1.986              6.890
 Vibration     4          0.593              1.985              6.428
 Vibration     5          0.594              1.983              5.753
 Vibration     6          0.594              1.981              5.307
 Vibration     7          0.595              1.977              4.777
 Vibration     8          0.597              1.971              4.301
 Vibration     9          0.598              1.967              4.096
 Vibration    10          0.600              1.961              3.834
 Vibration    11          0.601              1.957              3.696
 Vibration    12          0.603              1.951              3.515
 Vibration    13          0.604              1.949              3.448
 Vibration    14          0.606              1.942              3.290
 Vibration    15          0.608              1.935              3.146
 Vibration    16          0.609              1.933              3.103
 Vibration    17          0.610              1.928              3.015
 Vibration    18          0.614              1.915              2.826
 Vibration    19          0.622              1.891              2.545
 Vibration    20          0.623              1.888              2.517
 Vibration    21          0.636              1.845              2.169
 Vibration    22          0.641              1.828              2.061
 Vibration    23          0.646              1.815              1.982
 Vibration    24          0.661              1.768              1.754
 Vibration    25          0.670              1.741              1.643
 Vibration    26          0.672              1.733              1.614
 Vibration    27          0.682              1.705              1.517
 Vibration    28          0.699              1.654              1.360
 Vibration    29          0.714              1.612              1.251
 Vibration    30          0.722              1.589              1.197
 Vibration    31          0.737              1.548              1.108
 Vibration    32          0.741              1.538              1.088
 Vibration    33          0.747              1.522              1.056
 Vibration    34          0.757              1.495              1.006
 Vibration    35          0.764              1.475              0.971
 Vibration    36          0.781              1.432              0.901
 Vibration    37          0.785              1.421              0.884
 Vibration    38          0.789              1.410              0.866
 Vibration    39          0.794              1.397              0.847
 Vibration    40          0.842              1.281              0.694
 Vibration    41          0.855              1.252              0.660
 Vibration    42          0.912              1.126              0.532
 Vibration    43          0.932              1.084              0.493
 Vibration    44          0.959              1.029              0.448

 Normal termination of Gaussian 16 at Mon Jul 19 07:42:33 2021.
