 Gaussian 16, Revision A.03,
 Gaussian 16:  ES64L-G16RevA.03 25-Dec-2016

 ----------------------------------------------------------------------
 #p opt freq=noraman b3lyp pop=none empiricaldispersion=gd3bj jul-cc-pv
 dz
 ----------------------------------------------------------------------

 -----
 title
 -----
 Symbolic Z-matrix:
 Charge =  0 Multiplicity = 6

 SCF Done:  E(UB3LYP) =  -3684.01706174     A.U. after   28 cycles
 Optimization completed.
    -- Stationary point found.
 Normal termination of Gaussian 16 at Sun Jun  6 17:08:37 2021.

 ----------------------------------------------------------------------
 #P Geom=AllCheck Guess=TCheck SCRF=Check GenChk UB3LYP/Jul-CC-pVDZ Fre
 q
 ----------------------------------------------------------------------

 Structure from the checkpoint file:  "/scratch/kwaneu.2864376.bmbhpcps002/Gau-445.chk"
 -----
 title
 -----
 Charge =  0 Multiplicity = 6

                         Standard orientation:
 ---------------------------------------------------------------------
 Center     Atomic      Atomic             Coordinates (Angstroms)
 Number     Number       Type             X           Y           Z
 ---------------------------------------------------------------------
      1          6           0        3.298938   -2.348124   -1.218598
      2          6           0        2.541154   -1.164146   -1.343106
      3          6           0        2.984645   -0.139917   -2.207382
      4          6           0        4.159681   -0.300139   -2.931518
      5          6           0        4.912245   -1.473082   -2.792383
      6          6           0        4.483798   -2.492576   -1.934245
      7          6           0        1.318243   -0.964359   -0.571084
      8          6           0        0.688148   -2.097034    0.216439
      9          6           0       -0.815743   -1.881419    0.459172
     10          6           0       -1.633900   -1.940432   -0.841853
     11          6           0       -3.102563   -1.780548   -0.578872
     12          6           0       -3.804658   -0.685127   -0.909956
     13          8           0        0.768716    0.155659   -0.503684
     14          1           0        2.399552    0.771570   -2.314351
     15          1           0        4.494924    0.491756   -3.600853
     16          1           0        5.838461   -1.593251   -3.356104
     17          1           0        5.076871   -3.399941   -1.822073
     18          1           0        2.987081   -3.139040   -0.538918
     19          1           0        0.861703   -3.047858   -0.296247
     20          6           0        1.456344   -2.189707    1.547736
     21          1           0       -1.161108   -2.662493    1.152195
     22          1           0       -0.969744   -0.916083    0.953379
     23          1           0       -1.297089   -1.147558   -1.524400
     24          1           0       -1.444523   -2.905576   -1.342287
     25          1           0       -3.590058   -2.606442   -0.052149
     26          8           0        1.304397   -1.071092    2.254241
     27          8           0        2.106672   -3.156057    1.882135
     28          6           0        2.021485   -0.982275    3.522791
     29          6           0        1.620391    0.321979    4.174270
     30          1           0        1.754732   -1.860601    4.124277
     31          1           0        3.094980   -1.027262    3.297203
     32          1           0        2.141431    0.416781    5.137497
     33          1           0        1.891967    1.174591    3.540582
     34          1           0        0.538111    0.352285    4.357136
     35          6           0       -5.230427   -0.426678   -0.662438
     36          6           0       -5.755256    0.840377   -0.972891
     37          6           0       -6.105496   -1.391546   -0.126674
     38          6           0       -7.100420    1.141800   -0.750558
     39          1           0       -5.091931    1.601053   -1.389333
     40          6           0       -7.448333   -1.094255    0.095002
     41          1           0       -5.734647   -2.388108    0.113953
     42          6           0       -7.953951    0.174877   -0.214505
     43          1           0       -7.480988    2.133980   -0.996754
     44          1           0       -8.108961   -1.857255    0.509487
     45          1           0       -9.005955    0.404139   -0.040248
     46          1           0       -3.271674    0.127820   -1.414953
     47         26           0        1.195950    2.000615    0.083923
     48         17           0        1.135999    3.212183   -1.744640
     49         17           0        3.217310    1.754838    0.915320
     50         17           0       -0.333430    2.495768    1.564813
 ---------------------------------------------------------------------

 SCF Done:  E(UB3LYP) =  -3684.01706174     A.U. after    1 cycles

 Isotropic polarizability for W=    0.000000      361.50 Bohr**3.
 End of Minotr F.D. properties file   721 does not exist.

                      1                      2                      3
                      A                      A                      A
 Frequencies --      7.0351                13.5212                14.5040
 Red. masses --      9.3919                 6.6134                 5.1837
 Frc consts  --      0.0003                 0.0007                 0.0006
 IR Inten    --      1.0106                 0.0610                 0.2028

                      4                      5                      6
                      A                      A                      A
 Frequencies --     18.6271                28.7494                37.5112
 Red. masses --      4.6304                 6.2956                 9.7667
 Frc consts  --      0.0009                 0.0031                 0.0081
 IR Inten    --      0.2985                 0.6809                 0.2128

                      7                      8                      9
                      A                      A                      A
 Frequencies --     42.0189                52.7389                56.4487
 Red. masses --      5.4299                 6.9943                 4.2672
 Frc consts  --      0.0056                 0.0115                 0.0080
 IR Inten    --      0.3591                 0.7853                 0.2859

                     10                     11                     12
                      A                      A                      A
 Frequencies --     66.2459                70.2940                73.7195
 Red. masses --      4.4104                 3.1302                 4.7921
 Frc consts  --      0.0114                 0.0091                 0.0153
 IR Inten    --      1.1025                 0.0795                 0.3110

                     13                     14                     15
                      A                      A                      A
 Frequencies --     78.3450                86.2066                91.7204
 Red. masses --      7.0352                 4.8926                 4.9383
 Frc consts  --      0.0254                 0.0214                 0.0245
 IR Inten    --      0.3892                 1.6433                 0.4862

                     16                     17                     18
                      A                      A                      A
 Frequencies --    103.2506               111.6033               119.9171
 Red. masses --      7.6279                16.9145                17.8828
 Frc consts  --      0.0479                 0.1241                 0.1515
 IR Inten    --      1.0348                 1.6355                 2.6051

                     19                     20                     21
                      A                      A                      A
 Frequencies --    133.3461               139.0183               157.4293
 Red. masses --      5.5832                 5.0882                 2.5616
 Frc consts  --      0.0585                 0.0579                 0.0374
 IR Inten    --      5.7918                 2.3658                 1.8186

                     22                     23                     24
                      A                      A                      A
 Frequencies --    165.9647               192.2758               201.0964
 Red. masses --      6.3199                 3.7664                 2.5844
 Frc consts  --      0.1026                 0.0820                 0.0616
 IR Inten    --      5.9255                 0.3929                 3.2935

                     25                     26                     27
                      A                      A                      A
 Frequencies --    237.3385               248.2272               259.2511
 Red. masses --      2.6596                 3.7518                 1.5406
 Frc consts  --      0.0883                 0.1362                 0.0610
 IR Inten    --      1.7252                 0.6277                 1.6647

                     28                     29                     30
                      A                      A                      A
 Frequencies --    276.3730               323.3143               331.0822
 Red. masses --      6.3000                 5.3264                 4.4114
 Frc consts  --      0.2835                 0.3280                 0.2849
 IR Inten    --     14.5999                 6.3663                 1.8136

                     31                     32                     33
                      A                      A                      A
 Frequencies --    346.1638               370.0724               378.3054
 Red. masses --     31.6310                 6.1613                 3.4943
 Frc consts  --      2.2332                 0.4972                 0.2946
 IR Inten    --     20.6790                21.4371                16.5274

                     34                     35                     36
                      A                      A                      A
 Frequencies --    398.2515               405.0029               408.1005
 Red. masses --      3.7428                 2.9735                32.2447
 Frc consts  --      0.3498                 0.2874                 3.1640
 IR Inten    --      1.4994                 2.3289                87.4959

                     37                     38                     39
                      A                      A                      A
 Frequencies --    411.0584               417.7111               424.1332
 Red. masses --      2.8448                27.0140                 4.2387
 Frc consts  --      0.2832                 2.7771                 0.4492
 IR Inten    --      0.3212                89.1031                 3.4666

                     40                     41                     42
                      A                      A                      A
 Frequencies --    433.1451               483.6658               521.8627
 Red. masses --      4.6695                 3.4402                 5.2456
 Frc consts  --      0.5162                 0.4742                 0.8417
 IR Inten    --      5.9424                 9.8225                 7.7575

                     43                     44                     45
                      A                      A                      A
 Frequencies --    536.1410               614.9479               623.6349
 Red. masses --      3.5668                 5.6322                 6.2383
 Frc consts  --      0.6041                 1.2549                 1.4295
 IR Inten    --      8.8847                 6.8966                 1.1284

                     46                     47                     48
                      A                      A                      A
 Frequencies --    630.3048               637.6430               667.4244
 Red. masses --      6.3594                 5.0123                 3.6473
 Frc consts  --      1.4886                 1.2007                 0.9572
 IR Inten    --      0.0569                11.6953                10.3179

                     49                     50                     51
                      A                      A                      A
 Frequencies --    687.8471               697.6471               722.2612
 Red. masses --      1.7496                 1.5823                 3.9964
 Frc consts  --      0.4877                 0.4537                 1.2283
 IR Inten    --     37.3934                40.1414                 5.2030

                     52                     53                     54
                      A                      A                      A
 Frequencies --    747.6758               754.1064               767.1496
 Red. masses --      1.5722                 2.2220                 2.2095
 Frc consts  --      0.5178                 0.7445                 0.7661
 IR Inten    --      7.6186                59.2226                 2.3592

                     55                     56                     57
                      A                      A                      A
 Frequencies --    805.8592               816.0223               835.5511
 Red. masses --      1.1231                 2.9818                 1.3100
 Frc consts  --      0.4297                 1.1699                 0.5388
 IR Inten    --      1.8483                 8.6324                 0.1283

                     58                     59                     60
                      A                      A                      A
 Frequencies --    838.1560               848.2578               854.8441
 Red. masses --      3.5600                 1.2727                 1.9777
 Frc consts  --      1.4735                 0.5396                 0.8515
 IR Inten    --      0.3217                 1.2690                 1.7392

                     61                     62                     63
                      A                      A                      A
 Frequencies --    859.0467               883.4153               920.4093
 Red. masses --      3.0728                 2.8955                 1.5623
 Frc consts  --      1.3360                 1.3314                 0.7798
 IR Inten    --     13.5805                 5.3374                 0.6578

                     64                     65                     66
                      A                      A                      A
 Frequencies --    949.6416               966.0520               974.2722
 Red. masses --      3.0177                 1.6416                 1.3794
 Frc consts  --      1.6034                 0.9026                 0.7714
 IR Inten    --      5.9095                 4.5312                 0.0392

                     67                     68                     69
                      A                      A                      A
 Frequencies --    977.5415               982.1199               993.8157
 Red. masses --      3.4750                 1.1562                 1.2465
 Frc consts  --      1.9565                 0.6570                 0.7253
 IR Inten    --     33.2727                27.2547                 8.3524

                     70                     71                     72
                      A                      A                      A
 Frequencies --    997.5072              1001.2834              1002.0868
 Red. masses --      1.5279                 5.4417                 3.6813
 Frc consts  --      0.8957                 3.2144                 2.1780
 IR Inten    --      0.9014                 0.3365                 2.4151

                     73                     74                     75
                      A                      A                      A
 Frequencies --   1015.5248              1022.5576              1037.1748
 Red. masses --      1.3954                 2.5062                 2.9910
 Frc consts  --      0.8479                 1.5440                 1.8957
 IR Inten    --      0.9113                12.5863                22.8649

                     76                     77                     78
                      A                      A                      A
 Frequencies --   1050.3724              1051.2787              1053.0074
 Red. masses --      2.1986                 2.3090                 3.0914
 Frc consts  --      1.4292                 1.5035                 2.0196
 IR Inten    --      3.2141                24.3868                46.1762

                     79                     80                     81
                      A                      A                      A
 Frequencies --   1081.3261              1097.3566              1116.8278
 Red. masses --      2.3406                 1.7340                 2.3148
 Frc consts  --      1.6124                 1.2303                 1.7011
 IR Inten    --     13.5660                 7.4893                 1.2999

                     82                     83                     84
                      A                      A                      A
 Frequencies --   1123.3108              1135.7916              1169.3581
 Red. masses --      1.5979                 2.1662                 1.5584
 Frc consts  --      1.1879                 1.6464                 1.2555
 IR Inten    --      6.0183                 9.8044                11.0302

                     85                     86                     87
                      A                      A                      A
 Frequencies --   1172.1431              1181.5186              1186.2061
 Red. masses --      1.0841                 1.0956                 1.3043
 Frc consts  --      0.8776                 0.9011                 1.0813
 IR Inten    --      0.0997                 3.4836                20.7068

                     88                     89                     90
                      A                      A                      A
 Frequencies --   1196.9876              1200.8048              1210.7326
 Red. masses --      1.1277                 1.9848                 1.1468
 Frc consts  --      0.9520                 1.6862                 0.9904
 IR Inten    --      0.3462               203.9055                34.5384

                     91                     92                     93
                      A                      A                      A
 Frequencies --   1234.6790              1263.0967              1269.1126
 Red. masses --      2.0591                 2.3622                 1.6136
 Frc consts  --      1.8495                 2.2204                 1.5313
 IR Inten    --      0.8509               248.6279                46.9355

                     94                     95                     96
                      A                      A                      A
 Frequencies --   1285.6561              1304.0780              1312.6278
 Red. masses --      1.1045                 1.2608                 1.8441
 Frc consts  --      1.0756                 1.2633                 1.8720
 IR Inten    --      1.4312                 5.5205                61.2112

                     97                     98                     99
                      A                      A                      A
 Frequencies --   1326.8066              1328.5671              1340.5130
 Red. masses --      1.6013                 1.4102                 1.5293
 Frc consts  --      1.6608                 1.4665                 1.6192
 IR Inten    --     52.8526                 1.7652                 4.3986

                    100                    101                    102
                      A                      A                      A
 Frequencies --   1355.9805              1364.7701              1377.7554
 Red. masses --      1.5399                 2.3264                 2.0789
 Frc consts  --      1.6682                 2.5530                 2.3251
 IR Inten    --      3.0732                 4.9937                12.8606

                    103                    104                    105
                      A                      A                      A
 Frequencies --   1378.5986              1385.5656              1386.9309
 Red. masses --      1.9740                 1.5330                 1.8355
 Frc consts  --      2.2105                 1.7340                 2.0803
 IR Inten    --      5.8990                 9.9383                66.3831

                    106                    107                    108
                      A                      A                      A
 Frequencies --   1418.8657              1470.9955              1471.9419
 Red. masses --      1.4077                 1.7343                 1.9554
 Frc consts  --      1.6697                 2.2110                 2.4961
 IR Inten    --     16.0501                21.2564                21.9423

                    109                    110                    111
                      A                      A                      A
 Frequencies --   1474.5218              1476.6422              1484.0511
 Red. masses --      1.0410                 1.4424                 1.0520
 Frc consts  --      1.3335                 1.8530                 1.3651
 IR Inten    --      5.9874                 9.2853                 2.4746

                    112                    113                    114
                      A                      A                      A
 Frequencies --   1488.5784              1504.1036              1522.0346
 Red. masses --      1.1108                 1.0856                 2.2221
 Frc consts  --      1.4502                 1.4471                 3.0330
 IR Inten    --     11.7259                 8.6256                12.3430

                    115                    116                    117
                      A                      A                      A
 Frequencies --   1522.4745              1595.6858              1621.0572
 Red. masses --      2.3545                 6.7330                 5.6139
 Frc consts  --      3.2155                10.1007                 8.6919
 IR Inten    --      9.3648               504.0136                 1.5574

                    118                    119                    120
                      A                      A                      A
 Frequencies --   1626.3583              1647.9474              1649.7494
 Red. masses --      6.0037                 5.8843                 6.2289
 Frc consts  --      9.3563                 9.4153                 9.9884
 IR Inten    --    185.2593                 5.6226                58.9931

                    121                    122                    123
                      A                      A                      A
 Frequencies --   1717.6952              1773.6058              3003.5321
 Red. masses --      5.9949                11.5268                 1.0665
 Frc consts  --     10.4213                21.3636                 5.6684
 IR Inten    --      1.0693               289.1227                35.4042

                    124                    125                    126
                      A                      A                      A
 Frequencies --   3046.2725              3049.5837              3065.4379
 Red. masses --      1.0362                 1.0689                 1.0580
 Frc consts  --      5.6652                 5.8567                 5.8577
 IR Inten    --     13.6969                13.2621                15.4156

                    127                    128                    129
                      A                      A                      A
 Frequencies --   3077.3743              3113.5267              3115.5368
 Red. masses --      1.0918                 1.1069                 1.0875
 Frc consts  --      6.0921                 6.3222                 6.2196
 IR Inten    --     15.7290                 9.8848                 1.9553

                    130                    131                    132
                      A                      A                      A
 Frequencies --   3123.1458              3125.7745              3131.6088
 Red. masses --      1.1025                 1.0901                 1.0951
 Frc consts  --      6.3357                 6.2751                 6.3277
 IR Inten    --     17.1067                 7.7993                 6.2355

                    133                    134                    135
                      A                      A                      A
 Frequencies --   3139.0082              3146.1649              3162.9257
 Red. masses --      1.0875                 1.1041                 1.0851
 Frc consts  --      6.3133                 6.4390                 6.3959
 IR Inten    --     28.1877                13.8485                 6.8998

                    136                    137                    138
                      A                      A                      A
 Frequencies --   3169.0598              3179.2556              3179.6081
 Red. masses --      1.0871                 1.0865                 1.0909
 Frc consts  --      6.4324                 6.4706                 6.4979
 IR Inten    --      0.1712                 1.3530                 8.7482

                    139                    140                    141
                      A                      A                      A
 Frequencies --   3187.7098              3193.9065              3196.3639
 Red. masses --      1.0942                 1.0900                 1.0990
 Frc consts  --      6.5512                 6.5514                 6.6152
 IR Inten    --     25.8777                 7.1928                16.2204

                    142                    143                    144
                      A                      A                      A
 Frequencies --   3200.1909              3211.4663              3212.8852
 Red. masses --      1.0937                 1.0941                 1.0973
 Frc consts  --      6.5995                 6.6486                 6.6736
 IR Inten    --      3.4822                 1.3093                13.9175

 - Thermochemistry -
 -------------------
 Temperature   298.150 Kelvin.  Pressure   1.00000 Atm.
 Atom     1 has atomic number  6 and mass  12.00000

 Molecular mass:   482.99839 amu.
 Principal axes and moments of inertia in atomic units:
                           1         2         3
     Eigenvalues --  ******************************
           X            0.99997  -0.00834   0.00010
           Y            0.00834   0.99995   0.00623
           Z           -0.00015  -0.00623   0.99998
 This molecule is an asymmetric top.
 Rotational symmetry number  1.
 Warning -- assumption of classical behavior for rotation
           may cause significant error
 Rotational temperatures (Kelvin)      0.00820     0.00346     0.00327
 Rotational constants (GHZ):           0.17092     0.07217     0.06822
 Zero-point vibrational energy    1009893.3 (Joules/Mol)
                                  241.37029 (Kcal/Mol)
 Warning -- explicit consideration of  44 degrees of freedom as
           vibrations may cause significant error
 Vibrational temperatures:     10.12    19.45    20.87    26.80    41.36
          (Kelvin)             53.97    60.46    75.88    81.22    95.31
                              101.14   106.07   112.72   124.03   131.97
                              148.55   160.57   172.53   191.86   200.02
                              226.51   238.79   276.64   289.33   341.48
                              357.14   373.00   397.64   465.18   476.35
                              498.05   532.45   544.30   573.00   582.71
                              587.17   591.42   600.99   610.23   623.20
                              695.89   750.84   771.39   884.77   897.27
                              906.87   917.43   960.27   989.66  1003.76
                             1039.17  1075.74  1084.99  1103.76  1159.45
                             1174.07  1202.17  1205.92  1220.45  1229.93
                             1235.98  1271.04  1324.26  1366.32  1389.93
                             1401.76  1406.46  1413.05  1429.88  1435.19
                             1440.62  1441.78  1461.11  1471.23  1492.26
                             1511.25  1512.56  1515.04  1555.79  1578.85
                             1606.87  1616.19  1634.15  1682.45  1686.45
                             1699.94  1706.69  1722.20  1727.69  1741.97
                             1776.43  1817.31  1825.97  1849.77  1876.28
                             1888.58  1908.98  1911.51  1928.70  1950.95
                             1963.60  1982.28  1983.50  1993.52  1995.48
                             2041.43  2116.43  2117.80  2121.51  2124.56
                             2135.22  2141.73  2164.07  2189.87  2190.50
                             2295.84  2332.34  2339.97  2371.03  2373.62
                             2471.38  2551.82  4321.41  4382.91  4387.67
                             4410.48  4427.66  4479.67  4482.56  4493.51
                             4497.29  4505.69  4516.33  4526.63  4550.74
                             4559.57  4574.24  4574.75  4586.40  4595.32
                             4598.85  4604.36  4620.58  4622.63

 Zero-point correction=                           0.384648 (Hartree/Particle)
 Thermal correction to Energy=                    0.415269
 Thermal correction to Enthalpy=                  0.416213
 Thermal correction to Gibbs Free Energy=         0.312497
 Sum of electronic and zero-point Energies=          -3683.632414
 Sum of electronic and thermal Energies=             -3683.601793
 Sum of electronic and thermal Enthalpies=           -3683.600849
 Sum of electronic and thermal Free Energies=        -3683.704565

                     E (Thermal)             CV                S
                      KCal/Mol        Cal/Mol-Kelvin    Cal/Mol-Kelvin
 Total                  260.585            107.516            218.289
 Electronic               0.000              0.000              3.561
 Translational            0.889              2.981             44.412
 Rotational               0.889              2.981             37.188
 Vibrational            258.808            101.555            133.128
 Vibration     1          0.593              1.987              8.710
 Vibration     2          0.593              1.986              7.412
 Vibration     3          0.593              1.986              7.272
 Vibration     4          0.593              1.986              6.775
 Vibration     5          0.593              1.984              5.914
 Vibration     6          0.594              1.982              5.386
 Vibration     7          0.595              1.980              5.162
 Vibration     8          0.596              1.977              4.712
 Vibration     9          0.596              1.975              4.578
 Vibration    10          0.598              1.970              4.262
 Vibration    11          0.598              1.968              4.145
 Vibration    12          0.599              1.966              4.051
 Vibration    13          0.600              1.964              3.932
 Vibration    14          0.601              1.959              3.744
 Vibration    15          0.602              1.955              3.623
 Vibration    16          0.605              1.947              3.392
 Vibration    17          0.607              1.940              3.241
 Vibration    18          0.609              1.933              3.102
 Vibration    19          0.613              1.920              2.897
 Vibration    20          0.615              1.914              2.817
 Vibration    21          0.621              1.894              2.580
 Vibration    22          0.624              1.884              2.481
 Vibration    23          0.634              1.851              2.206
 Vibration    24          0.638              1.838              2.123
 Vibration    25          0.656              1.784              1.823
 Vibration    26          0.662              1.766              1.743
 Vibration    27          0.668              1.747              1.667
 Vibration    28          0.678              1.717              1.556
 Vibration    29          0.708              1.629              1.293
 Vibration    30          0.713              1.613              1.255
 Vibration    31          0.724              1.583              1.184
 Vibration    32          0.742              1.534              1.079
 Vibration    33          0.749              1.516              1.046
 Vibration    34          0.765              1.474              0.969
 Vibration    35          0.770              1.459              0.944
 Vibration    36          0.773              1.453              0.933
 Vibration    37          0.775              1.446              0.923
 Vibration    38          0.781              1.432              0.900
 Vibration    39          0.786              1.418              0.878
 Vibration    40          0.794              1.398              0.848
 Vibration    41          0.840              1.286              0.700
 Vibration    42          0.877              1.202              0.606
 Vibration    43          0.891              1.170              0.574
 Vibration    44          0.974              1.000              0.425

                           ! Non-Optimized Parameters !
 Normal termination of Gaussian 16 at Sun Jun  6 23:32:37 2021.
