 Gaussian 16, Revision A.03,
 Gaussian 16:  ES64L-G16RevA.03 25-Dec-2016

 ----------------------------------------------------------------------
 #p opt=(calcfc,ts,noeigentest,maxstep=5) freq=noraman b3lyp pop=none e
 mpiricaldispersion=gd3bj jul-cc-pvdz
 ----------------------------------------------------------------------

 -----
 title
 -----
 Symbolic Z-matrix:
 Charge =  0 Multiplicity = 6

 SCF Done:  E(UB3LYP) =  -3683.99083776     A.U. after   24 cycles
 SCF Done:  E(UB3LYP) =  -3683.99086453     A.U. after   14 cycles
 SCF Done:  E(UB3LYP) =  -3683.99086641     A.U. after   12 cycles
 SCF Done:  E(UB3LYP) =  -3683.99086585     A.U. after   10 cycles
 Optimization completed on the basis of negligible forces.
    -- Stationary point found.
 Normal termination of Gaussian 16 at Sun Jun  6 20:02:32 2021.

 ----------------------------------------------------------------------
 #P Geom=AllCheck Guess=TCheck SCRF=Check GenChk UB3LYP/Jul-CC-pVDZ Fre
 q
 ----------------------------------------------------------------------

 Structure from the checkpoint file:  "/scratch/kwaneu.2864260.bmbhpcps002/Gau-31422.chk"
 -----
 title
 -----
 Charge =  0 Multiplicity = 6

                         Standard orientation:
 ---------------------------------------------------------------------
 Center     Atomic      Atomic             Coordinates (Angstroms)
 Number     Number       Type             X           Y           Z
 ---------------------------------------------------------------------
      1          6           0        0.172537    3.347419    0.643003
      2          6           0        0.126732    2.031547    0.155916
      3          6           0        0.549775    1.778030   -1.153692
      4          6           0        0.996430    2.824541   -1.966539
      5          6           0        1.037023    4.131200   -1.478345
      6          6           0        0.622907    4.390259   -0.164637
      7          6           0       -0.318390    0.896105    1.049009
      8          6           0       -1.668993    1.082001    1.779892
      9          6           0       -1.587603    0.126075    2.973212
     10          6           0       -0.168928    0.356111    3.519639
     11          6           0        0.711980    0.713989    2.299323
     12          6           0        1.563848   -0.368534    1.796871
     13          8           0       -0.304328   -0.322612    0.375157
     14         26           0       -0.490556   -1.914342   -0.506087
     15         17           0        1.026139   -1.845278   -2.157448
     16         17           0       -2.533849   -2.261370   -1.249859
     17         17           0        0.166544   -3.444809    1.019997
     18          1           0        0.526924    0.761686   -1.536609
     19          1           0        1.315097    2.609467   -2.987108
     20          1           0        1.384847    4.947265   -2.113028
     21          1           0        0.646974    5.408096    0.226600
     22          1           0       -0.144035    3.566896    1.664023
     23          1           0       -1.727785    2.119742    2.144162
     24          6           0       -2.891304    0.864046    0.901358
     25          1           0       -2.369120    0.317269    3.715390
     26          1           0       -1.710094   -0.904723    2.619501
     27          1           0       -0.158733    1.203427    4.218899
     28          1           0        0.215325   -0.516309    4.063998
     29          1           0        1.266556    1.644758    2.442483
     30          8           0       -2.693190    1.316636   -0.342563
     31          8           0       -3.922559    0.375945    1.307712
     32          6           0       -3.768649    1.111773   -1.299438
     33          6           0       -3.167156    1.275883   -2.678686
     34          1           0       -4.178654    0.108519   -1.142480
     35          1           0       -4.553113    1.852619   -1.089191
     36          1           0       -3.955386    1.164106   -3.436643
     37          1           0       -2.707050    2.267096   -2.793968
     38          1           0       -2.405226    0.505387   -2.854201
     39          6           0        2.677195   -0.228362    0.953999
     40          6           0        3.182382    1.043750    0.554178
     41          6           0        3.251665   -1.413735    0.408312
     42          6           0        4.223373    1.114793   -0.354432
     43          1           0        2.751783    1.954787    0.961568
     44          6           0        4.296093   -1.327480   -0.497134
     45          1           0        2.821465   -2.377545    0.680510
     46          6           0        4.777494   -0.066988   -0.875637
     47          1           0        4.607623    2.083431   -0.671357
     48          1           0        4.717888   -2.230907   -0.934725
     49          1           0        5.593788   -0.000109   -1.596733
     50          1           0        1.265366   -1.391575    2.041954
 ---------------------------------------------------------------------

 SCF Done:  E(UB3LYP) =  -3683.99086585     A.U. after    1 cycles

 Isotropic polarizability for W=    0.000000      346.81 Bohr**3.
 End of Minotr F.D. properties file   721 does not exist.

 ******    1 imaginary frequencies (negative Signs) ******

                      1                      2                      3
                      A                      A                      A
 Frequencies --   -156.4815                16.4886                32.5333
 Red. masses --     11.0265                 7.1448                 9.8997
 Frc consts  --      0.1591                 0.0011                 0.0062
 IR Inten    --     47.6335                 0.2116                 0.7256

                      4                      5                      6
                      A                      A                      A
 Frequencies --     40.8709                44.4040                49.4927
 Red. masses --      5.4787                 5.6904                 7.3603
 Frc consts  --      0.0054                 0.0066                 0.0106
 IR Inten    --      0.0726                 1.5092                 1.2437

                      7                      8                      9
                      A                      A                      A
 Frequencies --     51.6764                56.7110                63.8610
 Red. masses --      5.8710                 4.4006                 4.1666
 Frc consts  --      0.0092                 0.0083                 0.0100
 IR Inten    --      1.1525                 1.2017                 0.2828

                     10                     11                     12
                      A                      A                      A
 Frequencies --     75.8719                80.7831                90.4638
 Red. masses --      6.9472                 4.5579                 5.6588
 Frc consts  --      0.0236                 0.0175                 0.0273
 IR Inten    --      0.9328                 0.4274                 2.4144

                     13                     14                     15
                      A                      A                      A
 Frequencies --     99.5701               106.0390               116.3693
 Red. masses --     13.5307                 9.0554                12.3682
 Frc consts  --      0.0790                 0.0600                 0.0987
 IR Inten    --      1.1710                 5.4646                 0.7203

                     16                     17                     18
                      A                      A                      A
 Frequencies --    116.9252               128.9602               134.2807
 Red. masses --      7.0809                11.6245                 2.4084
 Frc consts  --      0.0570                 0.1139                 0.0256
 IR Inten    --      1.7639                 5.7775                 1.4304

                     19                     20                     21
                      A                      A                      A
 Frequencies --    150.4340               162.3863               177.8134
 Red. masses --      3.9539                 3.8907                 3.5309
 Frc consts  --      0.0527                 0.0604                 0.0658
 IR Inten    --      1.2572                 2.5812                 9.3978

                     22                     23                     24
                      A                      A                      A
 Frequencies --    196.0126               217.0811               236.2899
 Red. masses --      3.2717                 4.3070                 4.4621
 Frc consts  --      0.0741                 0.1196                 0.1468
 IR Inten    --      2.8567                 8.1550                 1.8104

                     25                     26                     27
                      A                      A                      A
 Frequencies --    258.0496               271.5599               285.0210
 Red. masses --      1.5852                 4.4987                 5.0089
 Frc consts  --      0.0622                 0.1955                 0.2397
 IR Inten    --      0.9896                 6.6109                 2.6805

                     28                     29                     30
                      A                      A                      A
 Frequencies --    311.4566               324.4732               331.0845
 Red. masses --      6.5703                 5.9695                 4.2182
 Frc consts  --      0.3755                 0.3703                 0.2724
 IR Inten    --     12.5543                10.7787                 6.2199

                     31                     32                     33
                      A                      A                      A
 Frequencies --    338.2150               357.1464               381.6563
 Red. masses --     10.3879                35.1546                 3.7036
 Frc consts  --      0.7001                 2.6420                 0.3179
 IR Inten    --     27.9004                63.3577                16.6691

                     34                     35                     36
                      A                      A                      A
 Frequencies --    391.9049               395.5774               411.2557
 Red. masses --      3.2051                14.5944                 2.9475
 Frc consts  --      0.2900                 1.3456                 0.2937
 IR Inten    --     17.2722                62.3969                 0.5742

                     37                     38                     39
                      A                      A                      A
 Frequencies --    419.4014               449.3164               476.5364
 Red. masses --      3.6778                 3.6613                 4.0465
 Frc consts  --      0.3811                 0.4355                 0.5414
 IR Inten    --      3.7891                11.4782                 6.1018

                     40                     41                     42
                      A                      A                      A
 Frequencies --    487.0066               519.6987               564.8156
 Red. masses --      3.5553                 3.5003                 3.5383
 Frc consts  --      0.4968                 0.5570                 0.6651
 IR Inten    --     26.7468                 3.3568                 6.7304

                     43                     44                     45
                      A                      A                      A
 Frequencies --    593.3251               617.3526               623.3297
 Red. masses --      4.4773                 5.9155                 4.3879
 Frc consts  --      0.9286                 1.3283                 1.0045
 IR Inten    --      4.1448                 8.8691                 9.6997

                     46                     47                     48
                      A                      A                      A
 Frequencies --    630.9313               662.7615               670.4153
 Red. masses --      5.8117                 2.3180                 1.8514
 Frc consts  --      1.3631                 0.5999                 0.4903
 IR Inten    --      1.0905                52.3574                30.6025

                     49                     50                     51
                      A                      A                      A
 Frequencies --    686.0683               706.5454               732.9456
 Red. masses --      5.2296                 1.8182                 2.7553
 Frc consts  --      1.4503                 0.5348                 0.8721
 IR Inten    --     11.7818                17.2426               131.0787

                     52                     53                     54
                      A                      A                      A
 Frequencies --    771.0267               776.1050               805.1423
 Red. masses --      2.0620                 2.4669                 2.7263
 Frc consts  --      0.7222                 0.8755                 1.0413
 IR Inten    --     17.2590                13.0617                 7.2023

                     55                     56                     57
                      A                      A                      A
 Frequencies --    809.8999               823.1994               835.5232
 Red. masses --      1.2377                 1.9844                 1.2967
 Frc consts  --      0.4783                 0.7923                 0.5333
 IR Inten    --      7.3177                 7.9988                 4.0983

                     58                     59                     60
                      A                      A                      A
 Frequencies --    850.8732               857.3891               876.1604
 Red. masses --      1.2561                 4.4720                 2.6510
 Frc consts  --      0.5358                 1.9369                 1.1990
 IR Inten    --      0.3355                15.1056                 6.8134

                     61                     62                     63
                      A                      A                      A
 Frequencies --    887.7924               937.3730               938.3134
 Red. masses --      2.9210                 2.8088                 1.8050
 Frc consts  --      1.3565                 1.4541                 0.9363
 IR Inten    --     14.7358                 2.0159                 0.8273

                     64                     65                     66
                      A                      A                      A
 Frequencies --    955.7999               962.3004               984.4928
 Red. masses --      2.2263                 1.6385                 1.3658
 Frc consts  --      1.1983                 0.8940                 0.7799
 IR Inten    --      4.4872                 3.5815                 1.6103

                     67                     68                     69
                      A                      A                      A
 Frequencies --    986.0525               997.4566              1001.7742
 Red. masses --      1.4768                 3.2285                 2.3434
 Frc consts  --      0.8460                 1.8925                 1.3856
 IR Inten    --     14.1009                18.7093                 9.3662

                     70                     71                     72
                      A                      A                      A
 Frequencies --   1004.5632              1007.1009              1011.5161
 Red. masses --      1.6901                 1.4323                 3.9926
 Frc consts  --      1.0049                 0.8559                 2.4069
 IR Inten    --      9.2258                 0.8858                 4.2317

                     73                     74                     75
                      A                      A                      A
 Frequencies --   1017.5860              1019.0893              1040.5832
 Red. masses --      1.7629                 1.9329                 2.3397
 Frc consts  --      1.0755                 1.1827                 1.4926
 IR Inten    --     18.7586                24.0686                 9.7210

                     76                     77                     78
                      A                      A                      A
 Frequencies --   1046.5544              1051.9413              1052.4155
 Red. masses --      2.7623                 2.1450                 2.4379
 Frc consts  --      1.7826                 1.3985                 1.5909
 IR Inten    --     36.1492                 3.5277                24.1944

                     79                     80                     81
                      A                      A                      A
 Frequencies --   1069.9060              1100.5964              1109.2750
 Red. masses --      2.1087                 1.9835                 1.5975
 Frc consts  --      1.4222                 1.4156                 1.1582
 IR Inten    --      4.8607                63.9777                 5.2913

                     82                     83                     84
                      A                      A                      A
 Frequencies --   1118.0845              1131.8912              1155.8490
 Red. masses --      1.6124                 2.1496                 2.4064
 Frc consts  --      1.1876                 1.6227                 1.8941
 IR Inten    --     11.9098                 7.3260                37.8646

                     85                     86                     87
                      A                      A                      A
 Frequencies --   1172.2050              1173.0531              1178.1404
 Red. masses --      1.1663                 1.4729                 1.8729
 Frc consts  --      0.9442                 1.1942                 1.5316
 IR Inten    --      0.6935                 3.9371                82.9462

                     88                     89                     90
                      A                      A                      A
 Frequencies --   1183.7177              1195.9031              1198.9771
 Red. masses --      1.1094                 1.5242                 1.1600
 Frc consts  --      0.9159                 1.2843                 0.9825
 IR Inten    --      2.4463                 9.7298                 7.9691

                     91                     92                     93
                      A                      A                      A
 Frequencies --   1205.1768              1224.0221              1243.1054
 Red. masses --      1.1539                 1.6341                 2.1343
 Frc consts  --      0.9875                 1.4424                 1.9432
 IR Inten    --     21.4864                63.8555               132.5463

                     94                     95                     96
                      A                      A                      A
 Frequencies --   1257.1526              1278.8653              1289.0668
 Red. masses --      2.2792                 1.4932                 1.1468
 Frc consts  --      2.1223                 1.4389                 1.1227
 IR Inten    --    112.1254                45.5946                 4.4737

                     97                     98                     99
                      A                      A                      A
 Frequencies --   1299.4001              1316.7602              1323.0905
 Red. masses --      1.6406                 1.7174                 1.4149
 Frc consts  --      1.6321                 1.7544                 1.4593
 IR Inten    --     94.4613                53.2432                 2.7264

                    100                    101                    102
                      A                      A                      A
 Frequencies --   1335.4365              1343.7331              1358.0688
 Red. masses --      1.5272                 1.6422                 1.4203
 Frc consts  --      1.6047                 1.7471                 1.5434
 IR Inten    --      3.8963                62.9174                27.1783

                    103                    104                    105
                      A                      A                      A
 Frequencies --   1359.8573              1363.7695              1381.3006
 Red. masses --      1.5540                 4.1361                 1.3759
 Frc consts  --      1.6931                 4.5323                 1.5468
 IR Inten    --     16.6693                 2.6751                22.4760

                    106                    107                    108
                      A                      A                      A
 Frequencies --   1401.0067              1415.3858              1462.6711
 Red. masses --      5.7897                 1.4650                 2.2724
 Frc consts  --      6.6956                 1.7292                 2.8644
 IR Inten    --     50.5291                 7.0085                39.4900

                    109                    110                    111
                      A                      A                      A
 Frequencies --   1470.9818              1473.6941              1480.5527
 Red. masses --      2.3162                 1.0417                 1.0901
 Frc consts  --      2.9528                 1.3330                 1.4079
 IR Inten    --      9.3636                 3.5526                 6.8083

                    112                    113                    114
                      A                      A                      A
 Frequencies --   1485.5275              1493.8182              1500.8313
 Red. masses --      1.0505                 1.2117                 1.6664
 Frc consts  --      1.3659                 1.5931                 2.2115
 IR Inten    --      2.9088                10.5311                28.8034

                    115                    116                    117
                      A                      A                      A
 Frequencies --   1504.6052              1519.8004              1557.1520
 Red. masses --      1.0872                 2.2658                 3.4610
 Frc consts  --      1.4501                 3.0835                 4.9444
 IR Inten    --     11.7187                 4.4995               146.2574

                    118                    119                    120
                      A                      A                      A
 Frequencies --   1597.2938              1624.6093              1645.2565
 Red. masses --      4.4353                 5.8500                 5.8017
 Frc consts  --      6.6672                 9.0971                 9.2529
 IR Inten    --      4.1534                 2.1467                 2.8436

                    121                    122                    123
                      A                      A                      A
 Frequencies --   1646.9881              1779.4542              3037.6450
 Red. masses --      5.5897                12.4664                 1.0798
 Frc consts  --      8.9334                23.2575                 5.8702
 IR Inten    --    231.5472               291.1368                 9.3257

                    124                    125                    126
                      A                      A                      A
 Frequencies --   3038.1540              3050.8016              3058.2187
 Red. masses --      1.0366                 1.0620                 1.0650
 Frc consts  --      5.6372                 5.8236                 5.8687
 IR Inten    --     15.5586                30.7665                36.1375

                    127                    128                    129
                      A                      A                      A
 Frequencies --   3081.0295              3097.7976              3111.0209
 Red. masses --      1.0670                 1.0986                 1.1024
 Frc consts  --      5.9674                 6.2118                 6.2861
 IR Inten    --      7.2790                 8.0978                16.0280

                    130                    131                    132
                      A                      A                      A
 Frequencies --   3118.0039              3123.8400              3138.6493
 Red. masses --      1.0872                 1.1001                 1.1051
 Frc consts  --      6.2277                 6.3248                 6.4142
 IR Inten    --     19.2447                17.1729                17.2658

                    133                    134                    135
                      A                      A                      A
 Frequencies --   3142.0590              3143.7305              3159.1594
 Red. masses --      1.1036                 1.0919                 1.0864
 Frc consts  --      6.4191                 6.3582                 6.3880
 IR Inten    --     14.0879                13.4875                 4.8849

                    136                    137                    138
                      A                      A                      A
 Frequencies --   3171.9451              3181.4345              3182.7762
 Red. masses --      1.0876                 1.0880                 1.0930
 Frc consts  --      6.4470                 6.4881                 6.5234
 IR Inten    --      2.2038                 2.1032                15.5562

                    139                    140                    141
                      A                      A                      A
 Frequencies --   3194.3694              3196.2641              3202.1981
 Red. masses --      1.0982                 1.0914                 1.0926
 Frc consts  --      6.6022                 6.5691                 6.6009
 IR Inten    --     16.2096                 6.2473                 1.6649

                    142                    143                    144
                      A                      A                      A
 Frequencies --   3213.1342              3227.1625              3227.8957
 Red. masses --      1.0977                 1.0941                 1.0925
 Frc consts  --      6.6769                 6.7136                 6.7070
 IR Inten    --      4.1878                 2.9080                14.1215

 - Thermochemistry -
 -------------------
 Temperature   298.150 Kelvin.  Pressure   1.00000 Atm.
 Atom     1 has atomic number  6 and mass  12.00000

 Molecular mass:   482.99839 amu.
 Principal axes and moments of inertia in atomic units:
                           1         2         3
     Eigenvalues --  ******************************
           X            0.99904  -0.04368   0.00417
           Y            0.04378   0.99868  -0.02687
           Z           -0.00299   0.02702   0.99963
 This molecule is an asymmetric top.
 Rotational symmetry number  1.
 Warning -- assumption of classical behavior for rotation
           may cause significant error
 Rotational temperatures (Kelvin)      0.00798     0.00701     0.00557
 Rotational constants (GHZ):           0.16636     0.14609     0.11611
    1 imaginary frequencies ignored.
 Zero-point vibrational energy    1011888.3 (Joules/Mol)
                                  241.84711 (Kcal/Mol)
 Warning -- explicit consideration of  43 degrees of freedom as
           vibrations may cause significant error
 Vibrational temperatures:     23.72    46.81    58.80    63.89    71.21
          (Kelvin)             74.35    81.59    91.88   109.16   116.23
                              130.16   143.26   152.57   167.43   168.23
                              185.54   193.20   216.44   233.64   255.83
                              282.02   312.33   339.97   371.28   390.71
                              410.08   448.12   466.84   476.36   486.62
                              513.85   549.12   563.86   569.15   591.71
                              603.43   646.47   685.63   700.69   747.73
                              812.64   853.66   888.23   896.83   907.77
                              953.57   964.58   987.10  1016.56  1054.55
                             1109.34  1116.64  1158.42  1165.27  1184.40
                             1202.13  1224.22  1233.59  1260.60  1277.34
                             1348.67  1350.02  1375.18  1384.54  1416.47
                             1418.71  1435.12  1441.33  1445.34  1448.99
                             1455.35  1464.08  1466.24  1497.17  1505.76
                             1513.51  1514.19  1539.36  1583.51  1596.00
                             1608.67  1628.54  1663.01  1686.54  1687.76
                             1695.08  1703.11  1720.64  1725.06  1733.98
                             1761.09  1788.55  1808.76  1840.00  1854.68
                             1869.55  1894.52  1903.63  1921.40  1933.33
                             1953.96  1956.53  1962.16  1987.38  2015.74
                             2036.42  2104.46  2116.41  2120.32  2130.19
                             2137.34  2149.27  2159.36  2164.79  2186.65
                             2240.39  2298.15  2337.45  2367.16  2369.65
                             2560.24  4370.49  4371.23  4389.42  4400.09
                             4432.91  4457.04  4476.07  4486.11  4494.51
                             4515.82  4520.72  4523.13  4545.33  4563.72
                             4577.37  4579.31  4595.99  4598.71  4607.25
                             4622.98  4643.17  4644.22

 Zero-point correction=                           0.385408 (Hartree/Particle)
 Thermal correction to Energy=                    0.413988
 Thermal correction to Enthalpy=                  0.414932
 Thermal correction to Gibbs Free Energy=         0.321548
 Sum of electronic and zero-point Energies=          -3683.605458
 Sum of electronic and thermal Energies=             -3683.576878
 Sum of electronic and thermal Enthalpies=           -3683.575934
 Sum of electronic and thermal Free Energies=        -3683.669318

                     E (Thermal)             CV                S
                      KCal/Mol        Cal/Mol-Kelvin    Cal/Mol-Kelvin
 Total                  259.781            104.238            196.542
 Electronic               0.000              0.000              3.561
 Translational            0.889              2.981             44.412
 Rotational               0.889              2.981             35.986
 Vibrational            258.004             98.277            112.583
 Vibration     1          0.593              1.986              7.018
 Vibration     2          0.594              1.983              5.669
 Vibration     3          0.594              1.981              5.216
 Vibration     4          0.595              1.980              5.052
 Vibration     5          0.595              1.978              4.838
 Vibration     6          0.596              1.977              4.752
 Vibration     7          0.596              1.975              4.568
 Vibration     8          0.597              1.972              4.334
 Vibration     9          0.599              1.965              3.995
 Vibration    10          0.600              1.962              3.872
 Vibration    11          0.602              1.956              3.650
 Vibration    12          0.604              1.949              3.463
 Vibration    13          0.605              1.944              3.340
 Vibration    14          0.608              1.936              3.160
 Vibration    15          0.608              1.935              3.151
 Vibration    16          0.611              1.924              2.961
 Vibration    17          0.613              1.919              2.884
 Vibration    18          0.618              1.902              2.667
 Vibration    19          0.622              1.889              2.522
 Vibration    20          0.628              1.870              2.351
 Vibration    21          0.636              1.845              2.170
 Vibration    22          0.646              1.815              1.983
 Vibration    23          0.655              1.785              1.831
 Vibration    24          0.667              1.749              1.675
 Vibration    25          0.675              1.726              1.586
 Vibration    26          0.683              1.701              1.503
 Vibration    27          0.700              1.652              1.355
 Vibration    28          0.709              1.627              1.287
 Vibration    29          0.713              1.613              1.255
 Vibration    30          0.719              1.599              1.221
 Vibration    31          0.732              1.561              1.134
 Vibration    32          0.751              1.509              1.033
 Vibration    33          0.759              1.487              0.993
 Vibration    34          0.762              1.480              0.979
 Vibration    35          0.775              1.446              0.922
 Vibration    36          0.782              1.428              0.894
 Vibration    37          0.808              1.362              0.798
 Vibration    38          0.833              1.302              0.719
 Vibration    39          0.843              1.279              0.691
 Vibration    40          0.875              1.206              0.611
 Vibration    41          0.921              1.107              0.514
 Vibration    42          0.951              1.046              0.461
 Vibration    43          0.977              0.995              0.421

 Optimization completed.
    -- Stationary point found.
 Normal termination of Gaussian 16 at Mon Jun  7 04:17:44 2021.
