 Gaussian 16, Revision A.03,
 Gaussian 16:  ES64L-G16RevA.03 25-Dec-2016

 ----------------------------------------------------------------------
 #p b3lyp jul-cc-pvdz empiricaldispersion=gd3bj opt freq=noraman pop=no
 ne
 ----------------------------------------------------------------------

 -----
 title
 -----
 Symbolic Z-matrix:
 Charge =  0 Multiplicity = 6

 SCF Done:  E(UB3LYP) =  -3684.02066491     A.U. after   23 cycles
 Optimization completed.
    -- Stationary point found.
 Normal termination of Gaussian 16 at Fri Jun  4 18:28:03 2021.

 ----------------------------------------------------------------------
 #P Geom=AllCheck Guess=TCheck SCRF=Check GenChk UB3LYP/Jul-CC-pVDZ Fre
 q
 ----------------------------------------------------------------------

 Structure from the checkpoint file:  "/scratch/kwaneu.2863324.bmbhpcps002/Gau-26342.chk"
 -----
 title
 -----
 Charge =  0 Multiplicity = 6

                         Standard orientation:
 ---------------------------------------------------------------------
 Center     Atomic      Atomic             Coordinates (Angstroms)
 Number     Number       Type             X           Y           Z
 ---------------------------------------------------------------------
      1          6           0       -2.171894    2.160388    0.155048
      2          6           0       -1.337514    1.113479   -0.259560
      3          6           0       -1.156540    0.878713   -1.625817
      4          6           0       -1.804608    1.680782   -2.567233
      5          6           0       -2.644261    2.718317   -2.152355
      6          6           0       -2.827277    2.955430   -0.786737
      7          6           0       -0.703794    0.240265    0.784286
      8          6           0       -1.549483   -0.938798    1.331368
      9          6           0       -0.937168   -1.226656    2.715121
     10          6           0       -0.500185    0.151858    3.248838
     11          6           0       -0.013388    0.907661    2.009896
     12          6           0        1.339540    0.423645    1.454033
     13          8           0        0.620736   -0.276254    0.333335
     14         26           0        1.426108   -1.738971   -0.772163
     15         17           0        2.616233   -0.694256   -2.273868
     16         17           0       -0.280957   -2.855652   -1.570882
     17         17           0        2.597679   -2.784792    0.767136
     18          1           0       -0.512339    0.072736   -1.967276
     19          1           0       -1.651103    1.490058   -3.629591
     20          1           0       -3.149660    3.343042   -2.889615
     21          1           0       -3.476176    3.765360   -0.452036
     22          1           0       -2.325448    2.346001    1.217890
     23          1           0       -1.472630   -1.777474    0.631364
     24          6           0       -3.009184   -0.524965    1.403484
     25          1           0       -1.649476   -1.725670    3.380977
     26          1           0       -0.073127   -1.892186    2.587317
     27          1           0       -1.363047    0.673219    3.679511
     28          1           0        0.278814    0.083130    4.019919
     29          1           0       -0.105097    1.994415    2.071328
     30          8           0       -3.630466   -0.784471    0.244692
     31          8           0       -3.535966    0.006394    2.360506
     32          6           0       -4.975319   -0.259596    0.090317
     33          6           0       -5.299978   -0.292434   -1.387899
     34          1           0       -5.656473   -0.882345    0.686542
     35          1           0       -4.994468    0.758285    0.498699
     36          1           0       -6.318845    0.088090   -1.547637
     37          1           0       -4.596909    0.338299   -1.947990
     38          1           0       -5.244874   -1.316734   -1.780250
     39          6           0        2.344378    1.392199    0.928614
     40          6           0        3.703210    1.172399    1.181951
     41          6           0        1.955895    2.489935    0.145413
     42          6           0        4.667795    2.045110    0.672290
     43          1           0        4.006592    0.301247    1.764556
     44          6           0        2.918167    3.356228   -0.369278
     45          1           0        0.903562    2.654957   -0.084032
     46          6           0        4.275535    3.137379   -0.104031
     47          1           0        5.724263    1.863170    0.870835
     48          1           0        2.611597    4.201942   -0.985613
     49          1           0        5.026333    3.815604   -0.511458
     50          1           0        1.821479   -0.345396    2.067501
 ---------------------------------------------------------------------

 SCF Done:  E(UB3LYP) =  -3684.02066491     A.U. after    2 cycles

 Isotropic polarizability for W=    0.000000      324.92 Bohr**3.
 End of Minotr F.D. properties file   721 does not exist.

                      1                      2                      3
                      A                      A                      A
 Frequencies --     10.4175                25.1174                28.9450
 Red. masses --     15.6185                 4.6195                 4.7980
 Frc consts  --      0.0010                 0.0017                 0.0024
 IR Inten    --      0.2186                 0.2763                 0.5208

                      4                      5                      6
                      A                      A                      A
 Frequencies --     35.2046                41.6765                49.5485
 Red. masses --      7.1508                 4.3785                 4.5221
 Frc consts  --      0.0052                 0.0045                 0.0065
 IR Inten    --      1.0977                 0.0353                 0.2312

                      7                      8                      9
                      A                      A                      A
 Frequencies --     52.3368                59.2427                71.5197
 Red. masses --      5.7775                 3.8818                 3.5759
 Frc consts  --      0.0093                 0.0080                 0.0108
 IR Inten    --      0.3202                 0.6719                 0.0252

                     10                     11                     12
                      A                      A                      A
 Frequencies --     77.9413                79.3015                88.1291
 Red. masses --     16.1431                 7.2679                 8.3285
 Frc consts  --      0.0578                 0.0269                 0.0381
 IR Inten    --      0.0142                 1.9027                 0.3542

                     13                     14                     15
                      A                      A                      A
 Frequencies --     90.6396               105.8450               112.4184
 Red. masses --      5.6868                 7.7333                15.5926
 Frc consts  --      0.0275                 0.0510                 0.1161
 IR Inten    --      2.2332                 2.9634                 1.6775

                     16                     17                     18
                      A                      A                      A
 Frequencies --    118.9767               124.7108               152.0384
 Red. masses --      8.3077                 5.9645                 3.9047
 Frc consts  --      0.0693                 0.0547                 0.0532
 IR Inten    --      1.5070                 3.4920                 0.3487

                     19                     20                     21
                      A                      A                      A
 Frequencies --    170.0135               189.2042               204.4139
 Red. masses --      4.6396                 3.0061                 3.6900
 Frc consts  --      0.0790                 0.0634                 0.0908
 IR Inten    --      1.6855                 3.0551                 4.7970

                     22                     23                     24
                      A                      A                      A
 Frequencies --    223.0770               236.7592               262.8160
 Red. masses --      6.4406                 4.6704                 1.7008
 Frc consts  --      0.1888                 0.1542                 0.0692
 IR Inten    --     14.6449                 0.4668                 0.5182

                     25                     26                     27
                      A                      A                      A
 Frequencies --    275.1971               291.5011               296.5167
 Red. masses --      2.4784                 3.2679                 5.3789
 Frc consts  --      0.1106                 0.1636                 0.2786
 IR Inten    --      2.3728                 4.5124                 0.2086

                     28                     29                     30
                      A                      A                      A
 Frequencies --    333.1069               347.3317               355.9600
 Red. masses --      4.7286                32.3460                 4.2617
 Frc consts  --      0.3091                 2.2991                 0.3182
 IR Inten    --      4.4137                24.9864                 8.1738

                     31                     32                     33
                      A                      A                      A
 Frequencies --    377.9130               400.5936               406.5479
 Red. masses --      5.3081                 3.4012                 2.9957
 Frc consts  --      0.4467                 0.3216                 0.2917
 IR Inten    --     11.9445                 8.2693                 2.1780

                     34                     35                     36
                      A                      A                      A
 Frequencies --    408.7510               414.4383               420.4927
 Red. masses --      2.8625                19.6785                27.5605
 Frc consts  --      0.2818                 1.9914                 2.8711
 IR Inten    --      1.1042                64.9216                74.9137

                     37                     38                     39
                      A                      A                      A
 Frequencies --    435.0581               477.5682               534.7096
 Red. masses --      3.6958                 4.9099                 3.4185
 Frc consts  --      0.4121                 0.6598                 0.5759
 IR Inten    --      7.3738                 6.2195                 9.4341

                     40                     41                     42
                      A                      A                      A
 Frequencies --    540.5189               604.3898               629.5676
 Red. masses --      3.5419                 3.4258                 6.3258
 Frc consts  --      0.6097                 0.7373                 1.4772
 IR Inten    --      4.9132                 5.5101                 0.1766

                     43                     44                     45
                      A                      A                      A
 Frequencies --    630.5613               637.9789               677.6017
 Red. masses --      6.3547                 3.3414                 6.1899
 Frc consts  --      1.4887                 0.8013                 1.6745
 IR Inten    --      1.0917                 4.8133                25.4256

                     46                     47                     48
                      A                      A                      A
 Frequencies --    679.9277               701.1195               703.3865
 Red. masses --      5.4681                 1.5513                 1.6246
 Frc consts  --      1.4894                 0.4493                 0.4736
 IR Inten    --      3.8301                41.5567                41.5642

                     49                     50                     51
                      A                      A                      A
 Frequencies --    731.6062               761.5746               764.5771
 Red. masses --      3.6417                 2.3085                 2.4331
 Frc consts  --      1.1484                 0.7889                 0.8380
 IR Inten    --     11.9821                56.5569                34.1605

                     52                     53                     54
                      A                      A                      A
 Frequencies --    806.6159               812.1168               829.5868
 Red. masses --      1.6577                 2.0812                 4.1586
 Frc consts  --      0.6355                 0.8087                 1.6862
 IR Inten    --     31.3459                35.4750                 9.8442

                     55                     56                     57
                      A                      A                      A
 Frequencies --    839.6323               841.5700               844.5749
 Red. masses --      3.4681                 1.2782                 1.4735
 Frc consts  --      1.4405                 0.5334                 0.6192
 IR Inten    --    122.9626                 1.2297                22.8235

                     58                     59                     60
                      A                      A                      A
 Frequencies --    854.7836               876.6950               885.1380
 Red. masses --      2.3986                 2.6880                 3.7123
 Frc consts  --      1.0326                 1.2172                 1.7136
 IR Inten    --     34.5834                 8.1627                10.1383

                     61                     62                     63
                      A                      A                      A
 Frequencies --    914.5576               918.2381               929.2310
 Red. masses --      2.6638                 1.6782                 1.5783
 Frc consts  --      1.3127                 0.8337                 0.8029
 IR Inten    --     49.5504                 0.2381                 9.4323

                     64                     65                     66
                      A                      A                      A
 Frequencies --    941.0403               958.9590               974.8748
 Red. masses --      2.6650                 2.8474                 2.8833
 Frc consts  --      1.3905                 1.5428                 1.6145
 IR Inten    --     16.3107                59.3621                 2.4144

                     67                     68                     69
                      A                      A                      A
 Frequencies --    978.2018               980.7508               994.8395
 Red. masses --      1.5153                 1.4268                 2.3497
 Frc consts  --      0.8543                 0.8086                 1.3702
 IR Inten    --      0.5519                 0.7213                 8.3638

                     70                     71                     72
                      A                      A                      A
 Frequencies --    997.5140              1000.2464              1011.3502
 Red. masses --      1.3309                 1.3735                 5.5181
 Frc consts  --      0.7802                 0.8096                 3.3254
 IR Inten    --      0.5492                 0.3272                 0.5323

                     73                     74                     75
                      A                      A                      A
 Frequencies --   1015.8134              1025.2129              1050.8664
 Red. masses --      5.6364                 2.4738                 2.1927
 Frc consts  --      3.4267                 1.5319                 1.4267
 IR Inten    --      0.6398                34.9456                 2.0484

                     76                     77                     78
                      A                      A                      A
 Frequencies --   1053.9278              1055.2808              1070.1672
 Red. masses --      2.0226                 2.1314                 1.7976
 Frc consts  --      1.3237                 1.3985                 1.2130
 IR Inten    --      4.2059                 9.3378                12.2641

                     79                     80                     81
                      A                      A                      A
 Frequencies --   1082.7107              1103.2079              1115.0316
 Red. masses --      2.2133                 1.7806                 1.6198
 Frc consts  --      1.5287                 1.2769                 1.1865
 IR Inten    --      6.1860                 6.0604                 4.3678

                     82                     83                     84
                      A                      A                      A
 Frequencies --   1133.8878              1134.6468              1163.2862
 Red. masses --      2.6390                 2.5059                 1.4786
 Frc consts  --      1.9991                 1.9008                 1.1789
 IR Inten    --      3.8227                28.6724                14.5442

                     85                     86                     87
                      A                      A                      A
 Frequencies --   1171.3436              1175.1220              1175.8030
 Red. masses --      1.5412                 1.0875                 1.0867
 Frc consts  --      1.2458                 0.8848                 0.8852
 IR Inten    --      6.4566                 0.1995                 0.1783

                     88                     89                     90
                      A                      A                      A
 Frequencies --   1187.8165              1201.5506              1206.2140
 Red. masses --      1.3971                 1.1261                 1.1307
 Frc consts  --      1.1614                 0.9579                 0.9693
 IR Inten    --      3.4391                 5.4816                 0.3106

                     91                     92                     93
                      A                      A                      A
 Frequencies --   1220.0742              1231.1208              1234.0256
 Red. masses --      2.6599                 1.7364                 1.5781
 Frc consts  --      2.3329                 1.5506                 1.4159
 IR Inten    --    237.4109                29.9417                10.4714

                     94                     95                     96
                      A                      A                      A
 Frequencies --   1260.0120              1274.5835              1286.4655
 Red. masses --      1.4772                 1.5740                 1.1737
 Frc consts  --      1.3818                 1.5066                 1.1444
 IR Inten    --     15.5444                23.7069                 1.0849

                     97                     98                     99
                      A                      A                      A
 Frequencies --   1290.6144              1309.7334              1323.5649
 Red. masses --      1.7205                 2.1640                 1.5200
 Frc consts  --      1.6885                 2.1872                 1.5689
 IR Inten    --     15.7616                 5.9346                 7.6806

                    100                    101                    102
                      A                      A                      A
 Frequencies --   1336.1337              1341.4195              1349.2545
 Red. masses --      1.7288                 1.8688                 1.4946
 Frc consts  --      1.8184                 1.9812                 1.6031
 IR Inten    --      9.7305                 6.1894                37.3859

                    103                    104                    105
                      A                      A                      A
 Frequencies --   1362.2356              1363.6919              1367.7383
 Red. masses --      2.5596                 2.2037                 1.7400
 Frc consts  --      2.7986                 2.4146                 1.9178
 IR Inten    --      1.9892                19.1549                 9.9553

                    106                    107                    108
                      A                      A                      A
 Frequencies --   1391.9596              1407.5004              1418.7088
 Red. masses --      1.5689                 1.7715                 1.5497
 Frc consts  --      1.7910                 2.0678                 1.8378
 IR Inten    --     79.4977                14.8338                 8.1492

                    109                    110                    111
                      A                      A                      A
 Frequencies --   1473.1527              1475.6360              1476.7720
 Red. masses --      2.1154                 1.0441                 1.1329
 Frc consts  --      2.7049                 1.3395                 1.4557
 IR Inten    --      5.8166                 3.8082                 8.6233

                    112                    113                    114
                      A                      A                      A
 Frequencies --   1485.1262              1487.4021              1491.5612
 Red. masses --      1.8332                 1.0537                 1.2269
 Frc consts  --      2.3823                 1.3734                 1.6082
 IR Inten    --     14.8168                 0.3882                11.0021

                    115                    116                    117
                      A                      A                      A
 Frequencies --   1507.4002              1527.1132              1527.6939
 Red. masses --      1.0868                 2.3675                 2.3455
 Frc consts  --      1.4550                 3.2530                 3.2252
 IR Inten    --      7.5749                 1.8880                 5.7962

                    118                    119                    120
                      A                      A                      A
 Frequencies --   1630.4106              1633.9353              1653.6798
 Red. masses --      5.8452                 5.7808                 5.8090
 Frc consts  --      9.1546                 9.0930                 9.3596
 IR Inten    --      0.3069                 0.3234                 2.1310

                    121                    122                    123
                      A                      A                      A
 Frequencies --   1653.9500              1767.7231              3040.4051
 Red. masses --      5.7732                11.1506                 1.0350
 Frc consts  --      9.3048                20.5294                 5.6369
 IR Inten    --      2.0350               188.5974                16.3033

                    124                    125                    126
                      A                      A                      A
 Frequencies --   3060.7171              3061.4668              3065.5715
 Red. masses --      1.0597                 1.0630                 1.0651
 Frc consts  --      5.8489                 5.8700                 5.8974
 IR Inten    --     21.6246                19.6357                17.8291

                    127                    128                    129
                      A                      A                      A
 Frequencies --   3103.5487              3108.0594              3108.8406
 Red. masses --      1.0879                 1.1054                 1.0854
 Frc consts  --      6.1739                 6.2914                 6.1806
 IR Inten    --      5.7853                 3.2345                 4.0687

                    130                    131                    132
                      A                      A                      A
 Frequencies --   3115.9373              3118.5174              3128.7907
 Red. masses --      1.1022                 1.1009                 1.1026
 Frc consts  --      6.3049                 6.3078                 6.3593
 IR Inten    --      7.9039                18.8671                15.4933

                    133                    134                    135
                      A                      A                      A
 Frequencies --   3133.1821              3137.8139              3170.5934
 Red. masses --      1.1057                 1.0895                 1.0853
 Frc consts  --      6.3950                 6.3205                 6.4280
 IR Inten    --     26.4888                 8.3792                 0.5719

                    136                    137                    138
                      A                      A                      A
 Frequencies --   3171.4877              3176.9835              3181.5812
 Red. masses --      1.0853                 1.0885                 1.0889
 Frc consts  --      6.4318                 6.4729                 6.4943
 IR Inten    --      0.3866                 1.4870                 4.6833

                    139                    140                    141
                      A                      A                      A
 Frequencies --   3185.4508              3190.3334              3194.1097
 Red. masses --      1.0912                 1.0934                 1.0949
 Frc consts  --      6.5239                 6.5568                 6.5817
 IR Inten    --      8.6844                10.1430                 8.5527

                    142                    143                    144
                      A                      A                      A
 Frequencies --   3198.1540              3200.5647              3221.6174
 Red. masses --      1.0980                 1.0991                 1.0928
 Frc consts  --      6.6167                 6.6336                 6.6823
 IR Inten    --     10.9734                11.0013                 0.3141

 - Thermochemistry -
 -------------------
 Temperature   298.150 Kelvin.  Pressure   1.00000 Atm.
 Atom     1 has atomic number  6 and mass  12.00000

 Molecular mass:   482.99839 amu.
 Principal axes and moments of inertia in atomic units:
                           1         2         3
     Eigenvalues --  9648.34340********************
           X            0.99952   0.02458   0.01865
           Y           -0.02351   0.99817  -0.05576
           Z           -0.01999   0.05530   0.99827
 This molecule is an asymmetric top.
 Rotational symmetry number  1.
 Warning -- assumption of classical behavior for rotation
           may cause significant error
 Rotational temperatures (Kelvin)      0.00898     0.00558     0.00497
 Rotational constants (GHZ):           0.18705     0.11626     0.10353
 Zero-point vibrational energy    1019190.3 (Joules/Mol)
                                  243.59233 (Kcal/Mol)
 Warning -- explicit consideration of  41 degrees of freedom as
           vibrations may cause significant error
 Vibrational temperatures:     14.99    36.14    41.65    50.65    59.96
          (Kelvin)             71.29    75.30    85.24   102.90   112.14
                              114.10   126.80   130.41   152.29   161.75
                              171.18   179.43   218.75   244.61   272.22
                              294.11   320.96   340.64   378.13   395.95
                              419.41   426.62   479.27   499.73   512.15
                              543.73   576.36   584.93   588.10   596.28
                              605.00   625.95   687.11   769.33   777.69
                              869.58   905.81   907.24   917.91   974.92
                              978.26  1008.75  1012.02  1052.62  1095.74
                             1100.06  1160.54  1168.45  1193.59  1208.04
                             1210.83  1215.15  1229.84  1261.37  1273.52
                             1315.84  1321.14  1336.96  1353.95  1379.73
                             1402.63  1407.41  1411.08  1431.35  1435.20
                             1439.13  1455.11  1461.53  1475.05  1511.96
                             1516.37  1518.31  1539.73  1557.78  1587.27
                             1604.28  1631.41  1632.50  1673.71  1685.30
                             1690.74  1691.72  1709.00  1728.76  1735.47
                             1755.41  1771.31  1775.49  1812.88  1833.84
                             1850.94  1856.91  1884.41  1904.31  1922.40
                             1930.00  1941.28  1959.95  1962.05  1967.87
                             2002.72  2025.08  2041.21  2119.54  2123.11
                             2124.75  2136.77  2140.04  2146.02  2168.81
                             2197.18  2198.01  2345.80  2350.87  2379.28
                             2379.67  2543.36  4374.46  4403.69  4404.77
                             4410.67  4465.31  4471.80  4472.93  4483.14
                             4486.85  4501.63  4507.95  4514.61  4561.78
                             4563.06  4570.97  4577.59  4583.15  4590.18
                             4595.61  4601.43  4604.90  4635.19

 Zero-point correction=                           0.388189 (Hartree/Particle)
 Thermal correction to Energy=                    0.416737
 Thermal correction to Enthalpy=                  0.417681
 Thermal correction to Gibbs Free Energy=         0.322474
 Sum of electronic and zero-point Energies=          -3683.632476
 Sum of electronic and thermal Energies=             -3683.603928
 Sum of electronic and thermal Enthalpies=           -3683.602984
 Sum of electronic and thermal Free Energies=        -3683.698191

                     E (Thermal)             CV                S
                      KCal/Mol        Cal/Mol-Kelvin    Cal/Mol-Kelvin
 Total                  261.506            103.808            200.380
 Electronic               0.000              0.000              3.561
 Translational            0.889              2.981             44.412
 Rotational               0.889              2.981             36.211
 Vibrational            259.729             97.847            116.197
 Vibration     1          0.593              1.987              7.930
 Vibration     2          0.593              1.985              6.182
 Vibration     3          0.593              1.984              5.900
 Vibration     4          0.594              1.982              5.512
 Vibration     5          0.594              1.981              5.178
 Vibration     6          0.595              1.978              4.835
 Vibration     7          0.596              1.977              4.727
 Vibration     8          0.597              1.974              4.482
 Vibration     9          0.598              1.968              4.111
 Vibration    10          0.599              1.964              3.942
 Vibration    11          0.600              1.963              3.908
 Vibration    12          0.601              1.958              3.701
 Vibration    13          0.602              1.956              3.646
 Vibration    14          0.605              1.945              3.344
 Vibration    15          0.607              1.939              3.227
 Vibration    16          0.609              1.934              3.117
 Vibration    17          0.610              1.928              3.026
 Vibration    18          0.619              1.900              2.647
 Vibration    19          0.625              1.879              2.435
 Vibration    20          0.633              1.855              2.236
 Vibration    21          0.640              1.834              2.093
 Vibration    22          0.649              1.806              1.934
 Vibration    23          0.656              1.784              1.827
 Vibration    24          0.670              1.741              1.643
 Vibration    25          0.677              1.719              1.563
 Vibration    26          0.687              1.690              1.465
 Vibration    27          0.690              1.680              1.436
 Vibration    28          0.715              1.609              1.245
 Vibration    29          0.725              1.581              1.178
 Vibration    30          0.731              1.563              1.140
 Vibration    31          0.748              1.517              1.048
 Vibration    32          0.766              1.469              0.960
 Vibration    33          0.771              1.456              0.939
 Vibration    34          0.773              1.451              0.931
 Vibration    35          0.778              1.439              0.911
 Vibration    36          0.783              1.426              0.890
 Vibration    37          0.796              1.394              0.842
 Vibration    38          0.834              1.300              0.717
 Vibration    39          0.890              1.173              0.577
 Vibration    40          0.896              1.160              0.564
 Vibration    41          0.963              1.022              0.442

                           ! Non-Optimized Parameters !
 Normal termination of Gaussian 16 at Sat Jun  5 01:30:31 2021.
