 Gaussian 16, Revision A.03,
 Gaussian 16:  ES64L-G16RevA.03 25-Dec-2016

 ----------------------------------------------------------------------
 #p opt freq=noraman b3lyp pop=none empiricaldispersion=gd3bj jul-cc-pv
 dz
 ----------------------------------------------------------------------

 -----
 title
 -----
 Symbolic Z-matrix:
 Charge =  0 Multiplicity = 1

 SCF Done:  E(RB3LYP) =  -1039.36705652     A.U. after   14 cycles
 Optimization completed.
    -- Stationary point found.
 Normal termination of Gaussian 16 at Fri Jun  4 17:30:34 2021.

 ----------------------------------------------------------------------
 #P Geom=AllCheck Guess=TCheck SCRF=Check GenChk RB3LYP/Jul-CC-pVDZ Fre
 q
 ----------------------------------------------------------------------

 Structure from the checkpoint file:  "/scratch/kwaneu.2863321.bmbhpcps002/Gau-44589.chk"
 -----
 title
 -----
 Charge =  0 Multiplicity = 1

                         Standard orientation:
 ---------------------------------------------------------------------
 Center     Atomic      Atomic             Coordinates (Angstroms)
 Number     Number       Type             X           Y           Z
 ---------------------------------------------------------------------
      1          6           0       -3.968699   -0.936264   -1.035013
      2          6           0       -3.156079   -1.239633    0.070196
      3          6           0       -3.669940   -2.051377    1.096403
      4          6           0       -4.968889   -2.547284    1.021990
      5          6           0       -5.773034   -2.239944   -0.082903
      6          6           0       -5.270948   -1.435700   -1.109314
      7          6           0       -1.756862   -0.729124    0.208655
      8          6           0       -1.243246    0.279384   -0.832638
      9          6           0        0.252485    0.593180   -0.658108
     10          6           0        1.156028   -0.570279   -1.099476
     11          6           0        2.609855   -0.215922   -1.000386
     12          6           0        3.476686   -0.810523   -0.164955
     13          8           0       -1.042377   -1.093991    1.126620
     14          1           0       -3.027579   -2.277754    1.946861
     15          1           0       -5.359207   -3.174270    1.824541
     16          1           0       -6.790793   -2.628409   -0.142762
     17          1           0       -5.893565   -1.195521   -1.971664
     18          1           0       -3.599814   -0.308996   -1.844586
     19          1           0       -1.411031   -0.131447   -1.836983
     20          6           0       -2.055691    1.565142   -0.778841
     21          1           0        0.492023    1.485458   -1.256210
     22          1           0        0.449182    0.835836    0.393132
     23          1           0        0.943873   -1.453898   -0.483888
     24          1           0        0.910487   -0.827527   -2.144904
     25          1           0        2.948449    0.599541   -1.647709
     26          8           0       -2.187627    2.000380    0.486648
     27          8           0       -2.503947    2.142778   -1.746869
     28          6           0       -2.932587    3.232528    0.670071
     29          6           0       -2.993547    3.504594    2.158004
     30          1           0       -2.419315    4.031485    0.118297
     31          1           0       -3.928601    3.100344    0.226757
     32          1           0       -3.552345    4.433945    2.338009
     33          1           0       -3.500939    2.684859    2.684566
     34          1           0       -1.984625    3.617495    2.577526
     35          6           0        4.905746   -0.508865    0.006274
     36          6           0        5.641387   -1.220048    0.971162
     37          6           0        5.584770    0.464505   -0.752854
     38          6           0        7.000108   -0.972127    1.177572
     39          1           0        5.133419   -1.979358    1.569340
     40          6           0        6.940210    0.714310   -0.549750
     41          1           0        5.047973    1.032152   -1.513110
     42          6           0        7.657141   -0.002106    0.417231
     43          1           0        7.545448   -1.538583    1.933840
     44          1           0        7.444827    1.472729   -1.150380
     45          1           0        8.718404    0.195694    0.573105
     46          1           0        3.095987   -1.613778    0.475115
 ---------------------------------------------------------------------

 SCF Done:  E(RB3LYP) =  -1039.36705652     A.U. after    2 cycles

 Isotropic polarizability for W=    0.000000      277.76 Bohr**3.
 End of Minotr F.D. properties file   721 does not exist.

                      1                      2                      3
                      A                      A                      A
 Frequencies --     15.3760                16.8754                19.0383
 Red. masses --      4.2265                 4.1989                 5.4741
 Frc consts  --      0.0006                 0.0007                 0.0012
 IR Inten    --      0.4692                 0.0863                 0.4312

                      4                      5                      6
                      A                      A                      A
 Frequencies --     20.7331                37.5033                49.5593
 Red. masses --      4.2517                 4.0200                 4.0090
 Frc consts  --      0.0011                 0.0033                 0.0058
 IR Inten    --      0.2714                 0.3509                 0.3278

                      7                      8                      9
                      A                      A                      A
 Frequencies --     64.7614                68.0730                81.8713
 Red. masses --      3.6253                 3.6385                 3.3758
 Frc consts  --      0.0090                 0.0099                 0.0133
 IR Inten    --      0.2949                 1.2078                 0.0481

                     10                     11                     12
                      A                      A                      A
 Frequencies --     93.3516               104.4649               133.2161
 Red. masses --      3.7365                 6.2615                 3.8372
 Frc consts  --      0.0192                 0.0403                 0.0401
 IR Inten    --      0.5712                 1.7079                 0.1507

                     13                     14                     15
                      A                      A                      A
 Frequencies --    148.3330               164.4773               187.3013
 Red. masses --      2.9618                 3.7603                 3.3254
 Frc consts  --      0.0384                 0.0599                 0.0687
 IR Inten    --      0.6627                 1.1613                 3.3188

                     16                     17                     18
                      A                      A                      A
 Frequencies --    199.9836               235.5091               247.8393
 Red. masses --      2.3182                 4.0583                 2.4271
 Frc consts  --      0.0546                 0.1326                 0.0878
 IR Inten    --      4.5668                 2.4233                 1.1018

                     19                     20                     21
                      A                      A                      A
 Frequencies --    260.2047               298.1116               323.4906
 Red. masses --      1.6308                 3.8774                 4.3221
 Frc consts  --      0.0651                 0.2030                 0.2665
 IR Inten    --      0.9109                10.5305                 0.5679

                     22                     23                     24
                      A                      A                      A
 Frequencies --    359.8774               378.7559               394.3537
 Red. masses --      5.2313                 3.7974                 4.0164
 Frc consts  --      0.3992                 0.3210                 0.3680
 IR Inten    --      3.1753                11.8973                 1.0764

                     25                     26                     27
                      A                      A                      A
 Frequencies --    410.6579               411.6731               418.6886
 Red. masses --      2.8935                 2.8449                 4.6440
 Frc consts  --      0.2875                 0.2841                 0.4796
 IR Inten    --      0.2647                 0.0034                 6.4303

                     28                     29                     30
                      A                      A                      A
 Frequencies --    440.3499               476.1224               504.1019
 Red. masses --      4.1916                 3.9333                 4.6560
 Frc consts  --      0.4789                 0.5253                 0.6971
 IR Inten    --      0.6947                 1.8949                 3.9114

                     31                     32                     33
                      A                      A                      A
 Frequencies --    535.5683               594.1043               626.6998
 Red. masses --      3.4621                 4.8373                 5.9468
 Frc consts  --      0.5851                 1.0060                 1.3761
 IR Inten    --     10.0656                 7.3299                 0.9856

                     34                     35                     36
                      A                      A                      A
 Frequencies --    628.0741               630.5663               676.8239
 Red. masses --      4.8356                 6.3676                 3.7078
 Frc consts  --      1.1239                 1.4917                 1.0007
 IR Inten    --      7.5804                 0.0559                14.1100

                     37                     38                     39
                      A                      A                      A
 Frequencies --    698.0405               698.4398               732.1543
 Red. masses --      1.5858                 1.7189                 2.3644
 Frc consts  --      0.4552                 0.4940                 0.7468
 IR Inten    --     51.5577                31.7559                 3.6362

                     40                     41                     42
                      A                      A                      A
 Frequencies --    735.5045               746.7156               768.6064
 Red. masses --      2.3880                 2.0483                 2.8349
 Frc consts  --      0.7611                 0.6729                 0.9867
 IR Inten    --     12.1002                31.1071                 7.4601

                     43                     44                     45
                      A                      A                      A
 Frequencies --    798.9887               807.3009               826.6503
 Red. masses --      2.5729                 1.1341                 3.0182
 Frc consts  --      0.9677                 0.4355                 1.2152
 IR Inten    --     16.4965                 0.3532                 1.5609

                     46                     47                     48
                      A                      A                      A
 Frequencies --    835.5200               850.4958               855.2886
 Red. masses --      1.2976                 1.3276                 2.1465
 Frc consts  --      0.5337                 0.5658                 0.9252
 IR Inten    --      0.0557                 0.9195                 1.3915

                     49                     50                     51
                      A                      A                      A
 Frequencies --    855.9056               885.3447               919.7474
 Red. masses --      2.4330                 2.6504                 1.5967
 Frc consts  --      1.0501                 1.2240                 0.7958
 IR Inten    --      5.5547                 4.6212                 0.8104

                     52                     53                     54
                      A                      A                      A
 Frequencies --    945.7939               956.9032               973.3962
 Red. masses --      1.5877                 3.5038                 1.3786
 Frc consts  --      0.8368                 1.8903                 0.7696
 IR Inten    --      3.9061                44.5049                 0.0411

                     55                     56                     57
                      A                      A                      A
 Frequencies --    976.2986               983.0856               990.1977
 Red. masses --      3.5617                 1.1840                 1.3867
 Frc consts  --      2.0002                 0.6742                 0.8011
 IR Inten    --     27.9323                18.4233                 1.4027

                     58                     59                     60
                      A                      A                      A
 Frequencies --    993.3035              1001.0201              1002.1989
 Red. masses --      1.2164                 5.4089                 3.3131
 Frc consts  --      0.7071                 3.1934                 1.9606
 IR Inten    --     12.1631                 0.0817                 0.5146

                     61                     62                     63
                      A                      A                      A
 Frequencies --   1005.3199              1014.0557              1042.7437
 Red. masses --      1.5423                 2.3219                 3.0509
 Frc consts  --      0.9184                 1.4067                 1.9545
 IR Inten    --      0.0765                12.7413                 7.6301

                     64                     65                     66
                      A                      A                      A
 Frequencies --   1049.6442              1051.2820              1064.4180
 Red. masses --      2.1395                 2.1664                 3.7204
 Frc consts  --      1.3888                 1.4107                 2.4835
 IR Inten    --      5.0257                 3.7271                98.4834

                     67                     68                     69
                      A                      A                      A
 Frequencies --   1084.6549              1097.0446              1106.8262
 Red. masses --      2.0928                 1.7184                 1.6676
 Frc consts  --      1.4507                 1.2185                 1.2037
 IR Inten    --     11.1018                 8.4839                 4.2483

                     70                     71                     72
                      A                      A                      A
 Frequencies --   1115.9928              1133.0594              1170.5227
 Red. masses --      2.2817                 2.1743                 1.5538
 Frc consts  --      1.6743                 1.6447                 1.2543
 IR Inten    --      7.1281                 6.0930                 3.4949

                     73                     74                     75
                      A                      A                      A
 Frequencies --   1171.2863              1173.3495              1177.7100
 Red. masses --      1.0840                 1.1285                 1.3083
 Frc consts  --      0.8762                 0.9154                 1.0691
 IR Inten    --      0.0340                 8.1700                10.6115

                     76                     77                     78
                      A                      A                      A
 Frequencies --   1196.0847              1199.7785              1219.4706
 Red. masses --      1.1286                 1.1537                 1.8583
 Frc consts  --      0.9513                 0.9785                 1.6282
 IR Inten    --      0.3950                28.1057               159.2210

                     79                     80                     81
                      A                      A                      A
 Frequencies --   1232.9272              1243.0998              1269.0646
 Red. masses --      2.0033                 2.4160                 1.9188
 Frc consts  --      1.7942                 2.1997                 1.8208
 IR Inten    --     10.4972               117.2788               132.2096

                     82                     83                     84
                      A                      A                      A
 Frequencies --   1282.7901              1298.8457              1305.9875
 Red. masses --      1.0998                 2.0215                 1.2348
 Frc consts  --      1.0663                 2.0093                 1.2409
 IR Inten    --      2.2708               175.0839                21.7055

                     85                     86                     87
                      A                      A                      A
 Frequencies --   1322.4920              1330.3473              1333.0216
 Red. masses --      1.8358                 1.3557                 1.4317
 Frc consts  --      1.8918                 1.4137                 1.4990
 IR Inten    --     16.3369                 2.4441                 0.1794

                     88                     89                     90
                      A                      A                      A
 Frequencies --   1353.4625              1358.3744              1364.6005
 Red. masses --      1.4234                 1.6805                 2.9185
 Frc consts  --      1.5363                 1.8270                 3.2020
 IR Inten    --     12.1011                35.4863                 4.7117

                     91                     92                     93
                      A                      A                      A
 Frequencies --   1366.9508              1378.5844              1383.6124
 Red. masses --      3.3122                 1.3504                 1.5304
 Frc consts  --      3.6464                 1.5121                 1.7262
 IR Inten    --      3.1673                 6.4507                 2.8194

                     94                     95                     96
                      A                      A                      A
 Frequencies --   1415.2676              1467.4521              1471.5883
 Red. masses --      1.4356                 1.1323                 2.3304
 Frc consts  --      1.6942                 1.4366                 2.9734
 IR Inten    --     10.4657                 8.4918                16.9597

                     97                     98                     99
                      A                      A                      A
 Frequencies --   1473.3398              1474.9408              1483.5286
 Red. masses --      1.9374                 1.0407                 1.1590
 Frc consts  --      2.4779                 1.3339                 1.5029
 IR Inten    --      9.4497                 4.3477                 4.4046

                    100                    101                    102
                      A                      A                      A
 Frequencies --   1486.3454              1507.3420              1518.5163
 Red. masses --      1.0511                 1.0845                 2.2473
 Frc consts  --      1.3681                 1.4518                 3.0531
 IR Inten    --      2.1742                 5.4728                 1.5063

                    103                    104                    105
                      A                      A                      A
 Frequencies --   1521.8789              1620.4029              1623.6010
 Red. masses --      2.3563                 5.6197                 5.7261
 Frc consts  --      3.2155                 8.6937                 8.8933
 IR Inten    --     12.7970                 1.0516                13.9925

                    106                    107                    108
                      A                      A                      A
 Frequencies --   1644.0632              1647.5893              1717.7165
 Red. masses --      5.7424                 5.8937                 6.0497
 Frc consts  --      9.1449                 9.4261                10.5170
 IR Inten    --     28.4721                11.8442                 7.4181

                    109                    110                    111
                      A                      A                      A
 Frequencies --   1739.8617              1773.3419              2996.9115
 Red. masses --     12.1367                11.6264                 1.0689
 Frc consts  --     21.6461                21.5417                 5.6566
 IR Inten    --    290.5989               145.5235                34.7322

                    112                    113                    114
                      A                      A                      A
 Frequencies --   3039.9158              3040.8815              3059.7333
 Red. masses --      1.0666                 1.0350                 1.0581
 Frc consts  --      5.8075                 5.6386                 5.8364
 IR Inten    --     19.3846                14.8781                16.5939

                    115                    116                    117
                      A                      A                      A
 Frequencies --   3074.0141              3093.3011              3102.4622
 Red. masses --      1.0831                 1.0897                 1.1072
 Frc consts  --      6.0301                 6.1434                 6.2788
 IR Inten    --      6.8046                 6.2409                 2.2243

                    118                    119                    120
                      A                      A                      A
 Frequencies --   3115.3597              3118.7190              3125.3378
 Red. masses --      1.0984                 1.1013                 1.0909
 Frc consts  --      6.2807                 6.3114                 6.2780
 IR Inten    --      7.3822                22.7235                 2.3196

                    121                    122                    123
                      A                      A                      A
 Frequencies --   3129.2492              3133.8560              3160.4433
 Red. masses --      1.1057                 1.0865                 1.0853
 Frc consts  --      6.3790                 6.2870                 6.3871
 IR Inten    --     31.7552                33.8047                 8.0852

                    124                    125                    126
                      A                      A                      A
 Frequencies --   3167.7494              3170.4976              3178.2099
 Red. masses --      1.0868                 1.0851                 1.0912
 Frc consts  --      6.4252                 6.4263                 6.4939
 IR Inten    --      0.1249                 0.2071                12.0425

                    127                    128                    129
                      A                      A                      A
 Frequencies --   3182.6615              3187.1350              3192.8808
 Red. masses --      1.0898                 1.0938                 1.0946
 Frc consts  --      6.5039                 6.5462                 6.5745
 IR Inten    --      9.3743                27.1756                14.8271

                    130                    131                    132
                      A                      A                      A
 Frequencies --   3195.3836              3205.3257              3208.6958
 Red. masses --      1.0988                 1.0940                 1.0944
 Frc consts  --      6.6100                 6.6225                 6.6385
 IR Inten    --     15.7411                 7.4806                 2.5475

 - Thermochemistry -
 -------------------
 Temperature   298.150 Kelvin.  Pressure   1.00000 Atm.
 Atom     1 has atomic number  6 and mass  12.00000

 Molecular mass:   322.15689 amu.
 Principal axes and moments of inertia in atomic units:
                           1         2         3
     Eigenvalues --  4317.91145********************
           X            0.99999  -0.00252  -0.00242
           Y            0.00257   0.99978   0.02098
           Z            0.00237  -0.02099   0.99978
 This molecule is an asymmetric top.
 Rotational symmetry number  1.
 Warning -- assumption of classical behavior for rotation
           may cause significant error
 Rotational temperatures (Kelvin)      0.02006     0.00408     0.00374
 Rotational constants (GHZ):           0.41797     0.08491     0.07785
 Zero-point vibrational energy     995629.8 (Joules/Mol)
                                  237.96122 (Kcal/Mol)
 Warning -- explicit consideration of  32 degrees of freedom as
           vibrations may cause significant error
 Vibrational temperatures:     22.12    24.28    27.39    29.83    53.96
          (Kelvin)             71.30    93.18    97.94   117.79   134.31
                              150.30   191.67   213.42   236.65   269.48
                              287.73   338.85   356.59   374.38   428.92
                              465.43   517.78   544.95   567.39   590.85
                              592.31   602.40   633.57   685.03   725.29
                              770.56   854.78   901.68   903.66   907.24
                              973.80  1004.32  1004.90  1053.41  1058.23
                             1074.36  1105.85  1149.57  1161.53  1189.37
                             1202.13  1223.67  1230.57  1231.46  1273.81
                             1323.31  1360.79  1376.77  1400.50  1404.68
                             1414.44  1424.67  1429.14  1440.24  1441.94
                             1446.43  1459.00  1500.28  1510.20  1512.56
                             1531.46  1560.58  1578.40  1592.48  1605.66
                             1630.22  1684.12  1685.22  1688.19  1694.46
                             1720.90  1726.21  1754.55  1773.91  1788.54
                             1825.90  1845.65  1868.75  1879.02  1902.77
                             1914.07  1917.92  1947.33  1954.40  1963.36
                             1966.74  1983.48  1990.71  2036.25  2111.34
                             2117.29  2119.81  2122.11  2134.47  2138.52
                             2168.73  2184.81  2189.64  2331.40  2336.00
                             2365.44  2370.51  2471.41  2503.27  2551.44
                             4311.89  4373.76  4375.15  4402.27  4422.82
                             4450.57  4463.75  4482.31  4487.14  4496.66
                             4502.29  4508.92  4547.17  4557.68  4561.64
                             4572.74  4579.14  4585.58  4593.84  4597.44
                             4611.75  4616.60

 Zero-point correction=                           0.379215 (Hartree/Particle)
 Thermal correction to Energy=                    0.402334
 Thermal correction to Enthalpy=                  0.403278
 Thermal correction to Gibbs Free Energy=         0.321063
 Sum of electronic and zero-point Energies=          -1038.987841
 Sum of electronic and thermal Energies=             -1038.964723
 Sum of electronic and thermal Enthalpies=           -1038.963778
 Sum of electronic and thermal Free Energies=        -1039.045993

                     E (Thermal)             CV                S
                      KCal/Mol        Cal/Mol-Kelvin    Cal/Mol-Kelvin
 Total                  252.468             85.981            173.036
 Electronic               0.000              0.000              0.000
 Translational            0.889              2.981             43.205
 Rotational               0.889              2.981             36.007
 Vibrational            250.691             80.019             93.823
 Vibration     1          0.593              1.986              7.156
 Vibration     2          0.593              1.986              6.972
 Vibration     3          0.593              1.986              6.732
 Vibration     4          0.593              1.986              6.563
 Vibration     5          0.594              1.982              5.387
 Vibration     6          0.595              1.978              4.835
 Vibration     7          0.597              1.971              4.307
 Vibration     8          0.598              1.969              4.208
 Vibration     9          0.600              1.962              3.846
 Vibration    10          0.602              1.954              3.589
 Vibration    11          0.605              1.946              3.369
 Vibration    12          0.613              1.920              2.899
 Vibration    13          0.618              1.904              2.694
 Vibration    14          0.623              1.886              2.498
 Vibration    15          0.632              1.857              2.254
 Vibration    16          0.638              1.840              2.133
 Vibration    17          0.655              1.786              1.837
 Vibration    18          0.661              1.766              1.746
 Vibration    19          0.668              1.745              1.660
 Vibration    20          0.691              1.677              1.427
 Vibration    21          0.708              1.628              1.292
 Vibration    22          0.734              1.555              1.123
 Vibration    23          0.749              1.515              1.044
 Vibration    24          0.761              1.482              0.984
 Vibration    25          0.775              1.447              0.924
 Vibration    26          0.776              1.445              0.921
 Vibration    27          0.782              1.430              0.896
 Vibration    28          0.800              1.382              0.826
 Vibration    29          0.833              1.303              0.721
 Vibration    30          0.859              1.241              0.648
 Vibration    31          0.891              1.171              0.575
 Vibration    32          0.952              1.044              0.460

                           ! Non-Optimized Parameters !
 Normal termination of Gaussian 16 at Fri Jun  4 20:13:34 2021.
