 Gaussian 16, Revision A.03,
 Gaussian 16:  ES64L-G16RevA.03 25-Dec-2016

 ----------------------------------------------------------------------
 #p opt=(calcfc,ts,maxstep=5,noeigentest) freq=noraman ub3lyp empirical
 dispersion=gd3bj jul-cc-pvdz pop=cm5
 ----------------------------------------------------------------------

 -----
 title
 -----
 Symbolic Z-matrix:
 Charge =  0 Multiplicity = 6

 SCF Done:  E(UB3LYP) =  -3683.98724970     A.U. after   25 cycles
 Optimization completed.
    -- Stationary point found.
 Normal termination of Gaussian 16 at Tue Jun 22 06:43:00 2021.

 ----------------------------------------------------------------------
 #P Geom=AllCheck Guess=TCheck SCRF=Check GenChk UB3LYP/Jul-CC-pVDZ Fre
 q
 ----------------------------------------------------------------------

 Structure from the checkpoint file:  "/scratch/kwaneu.2874810.bmbhpcps002/Gau-49155.chk"
 -----
 title
 -----
 Charge =  0 Multiplicity = 6

                         Standard orientation:
 ---------------------------------------------------------------------
 Center     Atomic      Atomic             Coordinates (Angstroms)
 Number     Number       Type             X           Y           Z
 ---------------------------------------------------------------------
      1          6           0        0.825083    3.304782   -0.742718
      2          6           0        1.305851    2.317952    0.165692
      3          6           0        2.699857    2.017250    0.158832
      4          6           0        3.552857    2.632252   -0.745309
      5          6           0        3.047284    3.576957   -1.645903
      6          6           0        1.687144    3.921904   -1.633520
      7          6           0        0.437013    1.640984    1.058748
      8          6           0       -1.022788    1.930927    1.261424
      9          6           0       -1.478080    1.029414    2.436960
     10          6           0       -0.178755    0.706356    3.185991
     11          6           0        0.906298    0.654202    2.094137
     12          6           0        0.914150   -0.701920    1.293824
     13          8           0       -0.063107   -0.511021    0.297466
     14         26           0       -1.066299   -1.860848   -0.547991
     15         17           0       -0.181842   -3.740314    0.229316
     16         17           0       -0.846845   -1.600970   -2.733310
     17         17           0       -3.171616   -1.623937    0.170530
     18          1           0        3.107854    1.301034    0.862981
     19          1           0        4.611267    2.375795   -0.750864
     20          1           0        3.719830    4.060580   -2.356183
     21          1           0        1.306120    4.668237   -2.329613
     22          1           0       -0.226386    3.565225   -0.753335
     23          1           0       -1.074182    2.992733    1.570815
     24          6           0       -1.939244    1.830179    0.027447
     25          1           0       -2.222281    1.534535    3.060767
     26          1           0       -1.939254    0.123362    2.033720
     27          1           0        0.066829    1.503251    3.903833
     28          1           0       -0.233417   -0.236255    3.743508
     29          1           0        1.902671    0.879574    2.485441
     30          8           0       -3.207151    1.790664    0.436099
     31          8           0       -1.582344    1.826903   -1.127229
     32          6           0       -4.209907    1.602956   -0.611276
     33          6           0       -5.529699    1.342511    0.077736
     34          1           0       -4.221980    2.512160   -1.227849
     35          1           0       -3.890280    0.756611   -1.228021
     36          1           0       -6.311959    1.208826   -0.682798
     37          1           0       -5.470195    0.426186    0.678526
     38          1           0       -5.814829    2.182728    0.726240
     39          1           0        0.634822   -1.511245    1.988804
     40          6           0        2.273008   -1.024013    0.713336
     41          6           0        2.491340   -0.997253   -0.668515
     42          6           0        3.340795   -1.325723    1.570927
     43          6           0        3.765626   -1.257132   -1.183733
     44          1           0        1.660176   -0.781563   -1.336743
     45          6           0        4.613706   -1.574719    1.058931
     46          1           0        3.173198   -1.372794    2.649399
     47          6           0        4.830487   -1.536711   -0.325656
     48          1           0        3.920589   -1.242979   -2.263211
     49          1           0        5.435735   -1.813251    1.735149
     50          1           0        5.823252   -1.741218   -0.728742
 ---------------------------------------------------------------------

 SCF Done:  E(UB3LYP) =  -3683.98724970     A.U. after    1 cycles

 The electronic state is 6-A.
 Alpha  occ. eigenvalues -- -256.16411-101.48457-101.48455-101.48136 -30.15848
 Alpha  occ. eigenvalues --  -26.01177 -26.01047 -26.01006 -19.20663 -19.15648
 Alpha  occ. eigenvalues --  -19.13913 -10.33994 -10.31123 -10.26274 -10.25905
 Alpha  occ. eigenvalues --  -10.25706 -10.25419 -10.25244 -10.25055 -10.24545
 Alpha  occ. eigenvalues --  -10.24177 -10.24162 -10.23384 -10.21520 -10.20769
 Alpha  occ. eigenvalues --  -10.20751 -10.20741 -10.20511 -10.20481 -10.20195
 Alpha  occ. eigenvalues --  -10.19640 -10.18473  -9.40153  -9.40152  -9.39838
 Alpha  occ. eigenvalues --   -7.16022  -7.16021  -7.15715  -7.15704  -7.15698
 Alpha  occ. eigenvalues --   -7.15688  -7.15687  -7.15393  -7.15380  -3.63545
 Alpha  occ. eigenvalues --   -2.41116  -2.40839  -2.40746  -1.12839  -1.04280
 Alpha  occ. eigenvalues --   -1.01154  -0.92697  -0.89481  -0.87187  -0.82500
 Alpha  occ. eigenvalues --   -0.81154  -0.80187  -0.78189  -0.76401  -0.76146
 Alpha  occ. eigenvalues --   -0.76005  -0.75636  -0.75399  -0.74772  -0.69260
 Alpha  occ. eigenvalues --   -0.66426  -0.66050  -0.65532  -0.61983  -0.61829
 Alpha  occ. eigenvalues --   -0.60303  -0.58474  -0.58154  -0.56693  -0.54443
 Alpha  occ. eigenvalues --   -0.53515  -0.52612  -0.51677  -0.50653  -0.49868
 Alpha  occ. eigenvalues --   -0.49252  -0.49080  -0.47748  -0.47715  -0.47021
 Alpha  occ. eigenvalues --   -0.46167  -0.45254  -0.44822  -0.44150  -0.43870
 Alpha  occ. eigenvalues --   -0.43731  -0.43375  -0.43292  -0.43078  -0.42827
 Alpha  occ. eigenvalues --   -0.42316  -0.41617  -0.41117  -0.40353  -0.39949
 Alpha  occ. eigenvalues --   -0.39597  -0.38986  -0.38266  -0.38082  -0.37613
 Alpha  occ. eigenvalues --   -0.36893  -0.36389  -0.36181  -0.35799  -0.35493
 Alpha  occ. eigenvalues --   -0.34326  -0.32679  -0.32122  -0.31231  -0.31021
 Alpha  occ. eigenvalues --   -0.30465  -0.29629  -0.29360  -0.27738  -0.27296
 Alpha  occ. eigenvalues --   -0.27133  -0.26908  -0.26774  -0.26539  -0.25884
 Alpha  occ. eigenvalues --   -0.25525  -0.25154
 Alpha virt. eigenvalues --   -0.16145  -0.06250  -0.04254  -0.03184  -0.02628
 Alpha virt. eigenvalues --   -0.02570  -0.02061  -0.01475  -0.00868  -0.00001
 Alpha virt. eigenvalues --    0.00366   0.00538   0.01117   0.01584   0.02120

  Beta  occ. eigenvalues -- -256.16223-101.48289-101.48266-101.47950 -30.06962
  Beta  occ. eigenvalues --  -25.93719 -25.93649 -25.93640 -19.20663 -19.15649
  Beta  occ. eigenvalues --  -19.13322 -10.33994 -10.31118 -10.26255 -10.25898
  Beta  occ. eigenvalues --  -10.25707 -10.25413 -10.25239 -10.25054 -10.24544
  Beta  occ. eigenvalues --  -10.24180 -10.24165 -10.23364 -10.21519 -10.20768
  Beta  occ. eigenvalues --  -10.20751 -10.20730 -10.20509 -10.20479 -10.20196
  Beta  occ. eigenvalues --  -10.19640 -10.18472  -9.39990  -9.39965  -9.39655
  Beta  occ. eigenvalues --   -7.15738  -7.15710  -7.15479  -7.15473  -7.15455
  Beta  occ. eigenvalues --   -7.15430  -7.15406  -7.15138  -7.15122  -3.42828
  Beta  occ. eigenvalues --   -2.19167  -2.19043  -2.19003  -1.12839  -1.04279
  Beta  occ. eigenvalues --   -1.00078  -0.92627  -0.89406  -0.87145  -0.82494
  Beta  occ. eigenvalues --   -0.81096  -0.80145  -0.78115  -0.76229  -0.75997
  Beta  occ. eigenvalues --   -0.75177  -0.74713  -0.74407  -0.74120  -0.69149
  Beta  occ. eigenvalues --   -0.66403  -0.65988  -0.65499  -0.61951  -0.61803
  Beta  occ. eigenvalues --   -0.60260  -0.58383  -0.58114  -0.56582  -0.54342
  Beta  occ. eigenvalues --   -0.53447  -0.52570  -0.51251  -0.50501  -0.49511
  Beta  occ. eigenvalues --   -0.49198  -0.48897  -0.47701  -0.47570  -0.46559
  Beta  occ. eigenvalues --   -0.45995  -0.45033  -0.43575  -0.43315  -0.43143
  Beta  occ. eigenvalues --   -0.42881  -0.42073  -0.41613  -0.40935  -0.40000
  Beta  occ. eigenvalues --   -0.39623  -0.38997  -0.38263  -0.38069  -0.37614
  Beta  occ. eigenvalues --   -0.36944  -0.36449  -0.36177  -0.35779  -0.35441
  Beta  occ. eigenvalues --   -0.34174  -0.32713  -0.32154  -0.31909  -0.31739
  Beta  occ. eigenvalues --   -0.31306  -0.30609  -0.29662  -0.29581  -0.29134
  Beta  occ. eigenvalues --   -0.28819  -0.28471  -0.27067  -0.26770  -0.25994
  Beta  occ. eigenvalues --   -0.25902  -0.25559
  Beta virt. eigenvalues --   -0.16279  -0.10237  -0.10191  -0.09373  -0.08998
  Beta virt. eigenvalues --   -0.08000  -0.06228  -0.04194  -0.03177  -0.02575
  Beta virt. eigenvalues --   -0.02534  -0.02046  -0.01467  -0.00865   0.00011

 Mulliken charges and spin densities:
               1          2
     1  C   -0.350650   0.006642
     2  C    2.873622  -0.013361
     3  C   -0.476836   0.003171
     4  C    0.014840  -0.003773
     5  C    0.272101   0.006371
     6  C   -0.036466  -0.002933
     7  C   -0.593029   0.015869
     8  C   -0.594771   0.000528
     9  C    0.587112  -0.005829
    10  C    0.926897   0.001337
    11  C    0.046865   0.009098
    12  C    0.440898   0.006523
    13  O   -0.339774   0.180058
    14  Fe   0.545803   4.052702
    15  Cl  -0.456589   0.257922
    16  Cl  -0.478880   0.245653
    17  Cl  -0.507021   0.224321
    18  H   -0.342652   0.000018
    19  H   -0.176613   0.000017
    20  H   -0.148619  -0.000099
    21  H   -0.159179   0.000015
    22  H   -0.297129  -0.000080
    23  H   -0.171814   0.000953
    24  C    0.986043   0.006752
    25  H   -0.155503   0.000138
    26  H   -0.013720   0.000626
    27  H   -0.121934   0.000304
    28  H   -0.124819   0.000023
    29  H   -0.261338   0.003727
    30  O   -0.652168  -0.001224
    31  O   -0.535055  -0.000330
    32  C    0.426760  -0.002694
    33  C    0.130761   0.000364
    34  H   -0.081651   0.000063
    35  H   -0.019800  -0.000247
    36  H   -0.016248   0.000047
    37  H    0.027450  -0.000287
    38  H    0.005272   0.000026
    39  H   -0.182336   0.007715
    40  C    1.271737  -0.014702
    41  C   -0.055004   0.002626
    42  C   -0.274032   0.004539
    43  C   -0.029196   0.004819
    44  H   -0.210494   0.000925
    45  C   -0.127234  -0.001225
    46  H   -0.215881   0.000016
    47  C    0.206829   0.002788
    48  H   -0.193467   0.000014
    49  H   -0.178824   0.000121
    50  H   -0.184265  -0.000048
 Sum of Mulliken charges =  -0.00000   5.00000

 Dipole moment (field-independent basis, Debye):
    X=              6.3480    Y=             12.1506    Z=              4.2445  Tot=             14.3510
 Quadrupole moment (field-independent basis, Debye-Ang):
   XX=           -174.8876   YY=           -198.9630   ZZ=           -192.7874
   XY=             -4.1986   XZ=             -4.7960   YZ=             -7.7025

  Exact polarizability: 420.363  -3.997 340.238 -16.813 -27.548 309.042
 Approx polarizability: 619.064 -15.843 514.971 -41.270 -62.271 562.370

 ******    1 imaginary frequencies (negative Signs) ******

                      1                      2                      3
                      A                      A                      A
 Frequencies --    -53.0103                13.8343                31.5627
 Red. masses --      8.3787                13.0890                 6.7390
 Frc consts  --      0.0139                 0.0015                 0.0040
 IR Inten    --     25.2381                 0.3885                 0.4459

                      4                      5                      6
                      A                      A                      A
 Frequencies --     37.0633                47.5405                53.5944
 Red. masses --      6.2860                 5.0265                 5.6283
 Frc consts  --      0.0051                 0.0067                 0.0095
 IR Inten    --      0.2827                 2.0876                 1.8043

                      7                      8                      9
                      A                      A                      A
 Frequencies --     58.6205                68.2624                71.6835
 Red. masses --      5.2510                 5.2330                 5.5995
 Frc consts  --      0.0106                 0.0144                 0.0170
 IR Inten    --      1.5555                 1.6045                 5.7594

                     10                     11                     12
                      A                      A                      A
 Frequencies --     82.3027                87.9776                97.9236
 Red. masses --      8.4441                 9.7274                 4.5880
 Frc consts  --      0.0337                 0.0444                 0.0259
 IR Inten    --      0.3531                 3.7794                 7.4819

                     13                     14                     15
                      A                      A                      A
 Frequencies --     98.1856               108.5813               119.5479
 Red. masses --      7.9900                 7.4064                 9.2761
 Frc consts  --      0.0454                 0.0514                 0.0781
 IR Inten    --      2.8342                 0.9678                 0.9595

                     16                     17                     18
                      A                      A                      A
 Frequencies --    128.1428               132.9940               154.1809
 Red. masses --      8.0925                 6.0652                 2.6495
 Frc consts  --      0.0783                 0.0632                 0.0371
 IR Inten    --      0.5311                 1.2594                 2.9537

                     19                     20                     21
                      A                      A                      A
 Frequencies --    164.6179               185.4873               186.6271
 Red. masses --      3.0576                 2.4912                 8.7372
 Frc consts  --      0.0488                 0.0505                 0.1793
 IR Inten    --      7.0595                 2.1044                 5.5101

                     22                     23                     24
                      A                      A                      A
 Frequencies --    224.2039               235.1226               248.3665
 Red. masses --      4.7059                 4.1815                 2.1628
 Frc consts  --      0.1394                 0.1362                 0.0786
 IR Inten    --      5.6514                 2.6328                 6.2217

                     25                     26                     27
                      A                      A                      A
 Frequencies --    265.0655               270.7793               299.9769
 Red. masses --      2.0021                 5.7510                 3.6853
 Frc consts  --      0.0829                 0.2484                 0.1954
 IR Inten    --      7.9103                 3.8017                20.9180

                     28                     29                     30
                      A                      A                      A
 Frequencies --    319.1002               337.9632               345.4678
 Red. masses --      5.7252                10.6565                 5.6806
 Frc consts  --      0.3435                 0.7171                 0.3994
 IR Inten    --     19.9280                28.7895                23.1615

                     31                     32                     33
                      A                      A                      A
 Frequencies --    377.5296               378.7328               394.9184
 Red. masses --      6.9575                 8.5868                22.7128
 Frc consts  --      0.5843                 0.7257                 2.0871
 IR Inten    --     28.6019                76.3088                90.5614

                     34                     35                     36
                      A                      A                      A
 Frequencies --    400.3186               409.1108               411.1554
 Red. masses --      7.3663                 3.0727                 3.4684
 Frc consts  --      0.6955                 0.3030                 0.3455
 IR Inten    --     75.4745                 6.3780                 6.8980

                     37                     38                     39
                      A                      A                      A
 Frequencies --    421.7965               433.2484               495.9921
 Red. masses --      3.3284                 3.9042                 3.9220
 Frc consts  --      0.3489                 0.4318                 0.5685
 IR Inten    --      3.1939                 6.2905                46.1592

                     40                     41                     42
                      A                      A                      A
 Frequencies --    497.7524               527.6691               561.2136
 Red. masses --      4.4947                 3.4687                 4.9661
 Frc consts  --      0.6561                 0.5690                 0.9216
 IR Inten    --     45.3157                 4.2228                27.2965

                     43                     44                     45
                      A                      A                      A
 Frequencies --    614.4013               623.7891               628.5134
 Red. masses --      3.9532                 5.3832                 6.3683
 Frc consts  --      0.8792                 1.2341                 1.4822
 IR Inten    --      8.7133                 3.5969                 1.1804

                     46                     47                     48
                      A                      A                      A
 Frequencies --    662.8338               672.2827               682.1937
 Red. masses --      3.4302                 1.6622                 3.7216
 Frc consts  --      0.8879                 0.4426                 1.0204
 IR Inten    --      3.1128                56.1983                 3.2488

                     49                     50                     51
                      A                      A                      A
 Frequencies --    691.0664               708.3608               744.3470
 Red. masses --      3.6183                 1.8426                 1.9085
 Frc consts  --      1.0181                 0.5447                 0.6230
 IR Inten    --     12.8162                36.0138                42.0999

                     52                     53                     54
                      A                      A                      A
 Frequencies --    773.2277               795.8934               808.7579
 Red. masses --      3.3236                 3.0165                 1.1054
 Frc consts  --      1.1708                 1.1258                 0.4260
 IR Inten    --     23.0079                 7.5206                 2.3102

                     55                     56                     57
                      A                      A                      A
 Frequencies --    822.6145               840.9880               849.5995
 Red. masses --      1.2827                 3.9014                 2.3910
 Frc consts  --      0.5114                 1.6257                 1.0168
 IR Inten    --      1.7318                 7.3073                13.9725

                     58                     59                     60
                      A                      A                      A
 Frequencies --    853.1263               870.3948               885.5934
 Red. masses --      1.3239                 2.6260                 3.5003
 Frc consts  --      0.5677                 1.1721                 1.6174
 IR Inten    --      2.4108                27.6321                 1.0488

                     61                     62                     63
                      A                      A                      A
 Frequencies --    908.3900               928.1084               938.9332
 Red. masses --      2.0698                 3.2444                 1.7094
 Frc consts  --      1.0063                 1.6466                 0.8879
 IR Inten    --      8.7889                 4.2334                 0.0925

                     64                     65                     66
                      A                      A                      A
 Frequencies --    957.6020               966.1376               983.2346
 Red. masses --      1.4409                 2.6641                 1.3601
 Frc consts  --      0.7785                 1.4651                 0.7747
 IR Inten    --      1.2411                12.3616                 0.7519

                     67                     68                     69
                      A                      A                      A
 Frequencies --    985.5828               993.6634              1001.4217
 Red. masses --      1.3839                 2.6391                 4.2282
 Frc consts  --      0.7920                 1.5353                 2.4983
 IR Inten    --      1.0005                14.7292                 9.0312

                     70                     71                     72
                      A                      A                      A
 Frequencies --   1002.8606              1004.1120              1010.2941
 Red. masses --      1.5939                 2.1413                 4.2112
 Frc consts  --      0.9445                 1.2720                 2.5325
 IR Inten    --      1.6900                 1.2190                 2.5331

                     73                     74                     75
                      A                      A                      A
 Frequencies --   1014.6228              1037.9531              1045.5317
 Red. masses --      1.3756                 2.7655                 2.2664
 Frc consts  --      0.8343                 1.7554                 1.4597
 IR Inten    --      0.5659                63.6066                21.0805

                     76                     77                     78
                      A                      A                      A
 Frequencies --   1048.6289              1056.1914              1067.3752
 Red. masses --      2.1768                 2.1565                 2.9370
 Frc consts  --      1.4103                 1.4174                 1.9715
 IR Inten    --      5.1369                 8.9915                68.9851

                     79                     80                     81
                      A                      A                      A
 Frequencies --   1089.5346              1107.3367              1116.2154
 Red. masses --      2.2397                 1.6269                 1.9360
 Frc consts  --      1.5664                 1.1754                 1.4212
 IR Inten    --     41.9419                12.5831                13.6387

                     82                     83                     84
                      A                      A                      A
 Frequencies --   1134.2970              1156.7194              1164.2519
 Red. masses --      2.1897                 1.4932                 1.7165
 Frc consts  --      1.6600                 1.1771                 1.3709
 IR Inten    --     11.0067                38.3168                62.8296

                     85                     86                     87
                      A                      A                      A
 Frequencies --   1169.8534              1171.6425              1182.3458
 Red. masses --      1.5405                 1.1023                 1.4360
 Frc consts  --      1.2421                 0.8916                 1.1827
 IR Inten    --      6.4954                 0.2402                23.4957

                     88                     89                     90
                      A                      A                      A
 Frequencies --   1183.5607              1192.7072              1195.7513
 Red. masses --      1.1154                 1.1767                 1.5252
 Frc consts  --      0.9206                 0.9862                 1.2849
 IR Inten    --     34.7203                 0.0531                 9.1702

                     91                     92                     93
                      A                      A                      A
 Frequencies --   1216.7903              1222.1516              1234.3030
 Red. masses --      1.2940                 2.1322                 2.1314
 Frc consts  --      1.1288                 1.8764                 1.9132
 IR Inten    --     78.6034                10.6971               189.0768

                     94                     95                     96
                      A                      A                      A
 Frequencies --   1247.5998              1274.7903              1285.8892
 Red. masses --      1.4945                 1.7555                 1.4711
 Frc consts  --      1.3705                 1.6808                 1.4332
 IR Inten    --    128.8838               183.4210                26.7070

                     97                     98                     99
                      A                      A                      A
 Frequencies --   1294.8270              1305.4876              1319.4534
 Red. masses --      1.2584                 1.4704                 1.6202
 Frc consts  --      1.2431                 1.4765                 1.6619
 IR Inten    --     55.6000                12.4601                12.1790

                    100                    101                    102
                      A                      A                      A
 Frequencies --   1331.9327              1353.8273              1358.9540
 Red. masses --      1.5123                 1.5153                 1.4922
 Frc consts  --      1.5807                 1.6364                 1.6237
 IR Inten    --      6.0835                 5.3022                17.8839

                    103                    104                    105
                      A                      A                      A
 Frequencies --   1360.9834              1368.4869              1382.2151
 Red. masses --      1.3862                 3.1323                 1.2678
 Frc consts  --      1.5128                 3.4561                 1.4270
 IR Inten    --      7.2194                13.8568                 8.8814

                    106                    107                    108
                      A                      A                      A
 Frequencies --   1390.4899              1417.4647              1442.9248
 Red. masses --      5.6761                 1.4356                 2.7451
 Frc consts  --      6.4660                 1.6994                 3.3674
 IR Inten    --     25.6722                 5.9600               203.6221

                    109                    110                    111
                      A                      A                      A
 Frequencies --   1468.1907              1473.9555              1474.1209
 Red. masses --      2.4120                 2.2871                 1.0449
 Frc consts  --      3.0633                 2.9276                 1.3378
 IR Inten    --     43.1385                17.3404                 3.4326

                    112                    113                    114
                      A                      A                      A
 Frequencies --   1484.5225              1485.6476              1499.8914
 Red. masses --      1.0801                 1.0721                 1.0779
 Frc consts  --      1.4025                 1.3941                 1.4287
 IR Inten    --      3.6124                 5.6356                 6.9482

                    115                    116                    117
                      A                      A                      A
 Frequencies --   1501.0155              1518.3337              1534.9140
 Red. masses --      1.0974                 2.2967                 2.8977
 Frc consts  --      1.4568                 3.1195                 4.0223
 IR Inten    --      6.0811                 2.8734                84.9869

                    118                    119                    120
                      A                      A                      A
 Frequencies --   1600.1758              1625.4663              1644.0927
 Red. masses --      4.4483                 5.8869                 5.6538
 Frc consts  --      6.7109                 9.1642                 9.0042
 IR Inten    --      7.2597                 4.6987               183.3874

                    121                    122                    123
                      A                      A                      A
 Frequencies --   1645.9405              1784.0345              2978.8616
 Red. masses --      5.7698                12.1260                 1.0787
 Frc consts  --      9.2095                22.7391                 5.6397
 IR Inten    --     16.1320               174.9306                11.2940

                    124                    125                    126
                      A                      A                      A
 Frequencies --   3003.3019              3038.7434              3040.1006
 Red. masses --      1.0836                 1.0675                 1.0356
 Frc consts  --      5.7588                 5.8080                 5.6393
 IR Inten    --     14.8007                37.2229                23.3166

                    127                    128                    129
                      A                      A                      A
 Frequencies --   3063.8220              3095.3674              3107.8263
 Red. masses --      1.0640                 1.0636                 1.0950
 Frc consts  --      5.8848                 6.0042                 6.2314
 IR Inten    --     23.8667                18.1960                 9.5305

                    130                    131                    132
                      A                      A                      A
 Frequencies --   3109.9598              3112.0977              3129.2483
 Red. masses --      1.0879                 1.1022                 1.1002
 Frc consts  --      6.1996                 6.2895                 6.3477
 IR Inten    --     19.0794                14.1872                 9.8784

                    133                    134                    135
                      A                      A                      A
 Frequencies --   3146.1663              3150.7754              3152.5543
 Red. masses --      1.1050                 1.1068                 1.0875
 Frc consts  --      6.4446                 6.4739                 6.3679
 IR Inten    --     12.0847                 5.8434                 4.8610

                    136                    137                    138
                      A                      A                      A
 Frequencies --   3170.5440              3180.9038              3181.8280
 Red. masses --      1.0870                 1.0879                 1.0924
 Frc consts  --      6.4377                 6.4853                 6.5158
 IR Inten    --      1.5756                 1.3822                15.8772

                    139                    140                    141
                      A                      A                      A
 Frequencies --   3193.4175              3200.8668              3206.6376
 Red. masses --      1.0975                 1.0922                 1.0961
 Frc consts  --      6.5941                 6.5934                 6.6403
 IR Inten    --     18.1875                 4.2547                 4.7559

                    142                    143                    144
                      A                      A                      A
 Frequencies --   3211.5880              3251.0028              3268.1754
 Red. masses --      1.0935                 1.0924                 1.0920
 Frc consts  --      6.6454                 6.8025                 6.8721
 IR Inten    --      6.9336                 4.9405                 4.2133

 - Thermochemistry -
 -------------------
 Temperature   298.150 Kelvin.  Pressure   1.00000 Atm.
 Atom     1 has atomic number  6 and mass  12.00000

 Molecular mass:   482.99839 amu.
 Principal axes and moments of inertia in atomic units:
                           1         2         3
     Eigenvalues --  ******************************
           X            0.99855  -0.05345  -0.00614
           Y            0.05334   0.99844  -0.01667
           Z            0.00702   0.01632   0.99984
 This molecule is an asymmetric top.
 Rotational symmetry number  1.
 Warning -- assumption of classical behavior for rotation
           may cause significant error
 Rotational temperatures (Kelvin)      0.00835     0.00628     0.00478
 Rotational constants (GHZ):           0.17395     0.13078     0.09967
    1 imaginary frequencies ignored.
 Zero-point vibrational energy    1014850.3 (Joules/Mol)
                                  242.55504 (Kcal/Mol)
 Warning -- explicit consideration of  42 degrees of freedom as
           vibrations may cause significant error
 Vibrational temperatures:     19.90    45.41    53.33    68.40    77.11
          (Kelvin)             84.34    98.21   103.14   118.42   126.58
                              140.89   141.27   156.22   172.00   184.37
                              191.35   221.83   236.85   266.87   268.51
                              322.58   338.29   357.34   381.37   389.59
                              431.60   459.11   486.25   497.05   543.18
                              544.91   568.20   575.97   588.62   591.56
                              606.87   623.35   713.62   716.15   759.20
                              807.46   883.99   897.49   904.29   953.67
                              967.26   981.52   994.29  1019.17  1070.95
                             1112.50  1145.11  1163.62  1183.56  1209.99
                             1222.38  1227.46  1252.30  1274.17  1306.97
                             1335.34  1350.92  1377.78  1390.06  1414.66
                             1418.03  1429.66  1440.82  1442.89  1444.69
                             1453.59  1459.82  1493.38  1504.29  1508.74
                             1519.62  1535.71  1567.60  1593.21  1605.98
                             1632.00  1664.26  1675.10  1683.16  1685.73
                             1701.13  1702.88  1716.04  1720.42  1750.69
                             1758.40  1775.89  1795.02  1834.14  1850.11
                             1862.97  1878.31  1898.40  1916.35  1947.86
                             1955.23  1958.15  1968.95  1988.70  2000.60
                             2039.42  2076.05  2112.40  2120.69  2120.93
                             2135.90  2137.52  2158.01  2159.63  2184.54
                             2208.40  2302.30  2338.68  2365.48  2368.14
                             2566.83  4285.92  4321.08  4372.07  4374.03
                             4408.16  4453.54  4471.47  4474.54  4477.61
                             4502.29  4526.63  4533.26  4535.82  4561.71
                             4576.61  4577.94  4594.62  4605.33  4613.64
                             4620.76  4677.47  4702.18

 Zero-point correction=                           0.386536 (Hartree/Particle)
 Thermal correction to Energy=                    0.414518
 Thermal correction to Enthalpy=                  0.415462
 Thermal correction to Gibbs Free Energy=         0.323668
 Sum of electronic and zero-point Energies=          -3683.600714
 Sum of electronic and thermal Energies=             -3683.572732
 Sum of electronic and thermal Enthalpies=           -3683.571788
 Sum of electronic and thermal Free Energies=        -3683.663581

                     E (Thermal)             CV                S
                      KCal/Mol        Cal/Mol-Kelvin    Cal/Mol-Kelvin
 Total                  260.114            103.227            193.196
 Electronic               0.000              0.000              3.561
 Translational            0.889              2.981             44.412
 Rotational               0.889              2.981             36.204
 Vibrational            258.336             97.266            109.020
 Vibration     1          0.593              1.986              7.366
 Vibration     2          0.594              1.983              5.729
 Vibration     3          0.594              1.982              5.410
 Vibration     4          0.595              1.979              4.917
 Vibration     5          0.596              1.976              4.680
 Vibration     6          0.596              1.974              4.503
 Vibration     7          0.598              1.969              4.203
 Vibration     8          0.598              1.968              4.107
 Vibration     9          0.600              1.961              3.835
 Vibration    10          0.601              1.958              3.705
 Vibration    11          0.603              1.951              3.495
 Vibration    12          0.604              1.950              3.490
 Vibration    13          0.606              1.942              3.294
 Vibration    14          0.609              1.933              3.108
 Vibration    15          0.611              1.925              2.974
 Vibration    16          0.613              1.920              2.902
 Vibration    17          0.620              1.898              2.620
 Vibration    18          0.623              1.886              2.496
 Vibration    19          0.632              1.860              2.272
 Vibration    20          0.632              1.858              2.261
 Vibration    21          0.649              1.804              1.925
 Vibration    22          0.655              1.787              1.839
 Vibration    23          0.662              1.765              1.742
 Vibration    24          0.671              1.737              1.628
 Vibration    25          0.674              1.727              1.591
 Vibration    26          0.693              1.674              1.417
 Vibration    27          0.705              1.637              1.315
 Vibration    28          0.718              1.600              1.222
 Vibration    29          0.724              1.584              1.187
 Vibration    30          0.748              1.518              1.049
 Vibration    31          0.749              1.515              1.044
 Vibration    32          0.762              1.481              0.982
 Vibration    33          0.766              1.469              0.961
 Vibration    34          0.773              1.450              0.930
 Vibration    35          0.775              1.446              0.923
 Vibration    36          0.784              1.423              0.886
 Vibration    37          0.794              1.398              0.848
 Vibration    38          0.852              1.259              0.668
 Vibration    39          0.853              1.255              0.664
 Vibration    40          0.883              1.189              0.592
 Vibration    41          0.917              1.115              0.521
 Vibration    42          0.974              1.001              0.426

 Optimization completed.
    -- Stationary point found.
 Normal termination of Gaussian 16 at Tue Jun 22 16:22:37 2021.
