 Gaussian 16, Revision A.03,
 Gaussian 16:  ES64L-G16RevA.03 25-Dec-2016

 ----------------------------------------------------------------------
 #p opt freq=noraman b3lyp pop=none empiricaldispersion=gd3bj jul-cc-pv
 dz
 ----------------------------------------------------------------------

 -----
 title
 -----
 Symbolic Z-matrix:
 Charge =  0 Multiplicity = 6

 SCF Done:  E(UB3LYP) =  -3684.01531867     A.U. after   23 cycles
 SCF Done:  E(UB3LYP) =  -3684.01531858     A.U. after    9 cycles
 SCF Done:  E(UB3LYP) =  -3684.01531854     A.U. after    9 cycles
 SCF Done:  E(UB3LYP) =  -3684.01531865     A.U. after    9 cycles
 Optimization completed.
    -- Stationary point found.
 Normal termination of Gaussian 16 at Sun Jun  6 18:51:14 2021.

 ----------------------------------------------------------------------
 #P Geom=AllCheck Guess=TCheck SCRF=Check GenChk UB3LYP/Jul-CC-pVDZ Fre
 q
 ----------------------------------------------------------------------

 Structure from the checkpoint file:  "/scratch/kwaneu.2864377.bmbhpcps002/Gau-40877.chk"
 -----
 title
 -----
 Charge =  0 Multiplicity = 6

                         Standard orientation:
 ---------------------------------------------------------------------
 Center     Atomic      Atomic             Coordinates (Angstroms)
 Number     Number       Type             X           Y           Z
 ---------------------------------------------------------------------
      1          6           0       -1.593997    3.076145    0.491248
      2          6           0       -1.042379    1.859463    0.064890
      3          6           0       -0.915578    1.611742   -1.303624
      4          6           0       -1.347260    2.561248   -2.233747
      5          6           0       -1.902467    3.768642   -1.806053
      6          6           0       -2.021811    4.025731   -0.436033
      7          6           0       -0.613525    0.873921    1.113017
      8          6           0       -1.736461    0.256768    1.973732
      9          6           0       -1.037678   -0.219186    3.251220
     10          6           0       -0.025457    0.905127    3.527398
     11          6           0        0.484135    1.301431    2.138212
     12          6           0        1.424355    0.269949    1.495905
     13          8           0        0.311969   -0.164125    0.572537
     14         26           0        0.596260   -1.688984   -0.728094
     15         17           0        1.962691   -0.923645   -2.257705
     16         17           0       -1.301934   -2.262788   -1.637761
     17         17           0        1.531580   -3.132747    0.635516
     18          1           0       -0.479475    0.684971   -1.663522
     19          1           0       -1.243229    2.350336   -3.298362
     20          1           0       -2.236584    4.508739   -2.533937
     21          1           0       -2.447078    4.968054   -0.089029
     22          1           0       -1.687702    3.288803    1.557879
     23          1           0       -2.391306    1.108875    2.210764
     24          6           0       -2.618078   -0.779192    1.302310
     25          1           0       -1.745518   -0.378227    4.072222
     26          1           0       -0.541112   -1.179402    3.061393
     27          1           0       -0.527264    1.765242    3.993930
     28          1           0        0.792518    0.600461    4.193450
     29          1           0        0.828926    2.334519    2.052490
     30          8           0       -3.335576   -0.218211    0.316619
     31          8           0       -2.688758   -1.937626    1.645801
     32          6           0       -4.269553   -1.076240   -0.395673
     33          6           0       -4.583991   -0.399893   -1.712610
     34          1           0       -3.806268   -2.058609   -0.528766
     35          1           0       -5.159969   -1.191614    0.238980
     36          1           0       -5.314611   -1.004659   -2.268210
     37          1           0       -5.008076    0.600799   -1.552077
     38          1           0       -3.674485   -0.305168   -2.319807
     39          6           0        2.634615    0.724842    0.753473
     40          6           0        2.601950    1.867713   -0.059729
     41          6           0        3.811411   -0.028182    0.837456
     42          6           0        3.734051    2.248112   -0.776550
     43          1           0        1.683307    2.444935   -0.159586
     44          6           0        4.948932    0.357178    0.125081
     45          1           0        3.825572   -0.935834    1.441960
     46          6           0        4.910382    1.494953   -0.683290
     47          1           0        3.698652    3.129066   -1.418071
     48          1           0        5.858613   -0.240065    0.190166
     49          1           0        5.793704    1.792495   -1.249725
     50          1           0        1.658258   -0.586019    2.138015
 ---------------------------------------------------------------------

 SCF Done:  E(UB3LYP) =  -3684.01531865     A.U. after    2 cycles

 Isotropic polarizability for W=    0.000000      324.84 Bohr**3.
 End of Minotr F.D. properties file   721 does not exist.

                      1                      2                      3
                      A                      A                      A
 Frequencies --     15.5559                22.0006                29.8076
 Red. masses --      8.6338                 5.9227                 4.4007
 Frc consts  --      0.0012                 0.0017                 0.0023
 IR Inten    --      0.1700                 0.4636                 0.1704

                      4                      5                      6
                      A                      A                      A
 Frequencies --     40.1335                42.3457                47.2259
 Red. masses --      4.6862                 5.0063                 6.0548
 Frc consts  --      0.0044                 0.0053                 0.0080
 IR Inten    --      0.0288                 0.0733                 0.2105

                      7                      8                      9
                      A                      A                      A
 Frequencies --     56.5715                58.5571                61.6074
 Red. masses --      7.4780                 8.2456                 4.0171
 Frc consts  --      0.0141                 0.0167                 0.0090
 IR Inten    --      0.8543                 1.5798                 0.1653

                     10                     11                     12
                      A                      A                      A
 Frequencies --     72.8281                88.7990                91.0664
 Red. masses --      7.2442                11.9248                10.8093
 Frc consts  --      0.0226                 0.0554                 0.0528
 IR Inten    --      0.2272                 1.5581                 0.8128

                     13                     14                     15
                      A                      A                      A
 Frequencies --    102.3543               109.3503               115.0852
 Red. masses --      7.1797                24.5565                 4.9132
 Frc consts  --      0.0443                 0.1730                 0.0383
 IR Inten    --      1.5504                 1.7882                 1.0247

                     16                     17                     18
                      A                      A                      A
 Frequencies --    121.6539               138.1084               153.0576
 Red. masses --     11.9033                 6.7199                 2.5464
 Frc consts  --      0.1038                 0.0755                 0.0351
 IR Inten    --      2.0372                 3.0621                 0.2032

                     19                     20                     21
                      A                      A                      A
 Frequencies --    163.3348               188.4347               207.8780
 Red. masses --      2.4146                 4.3320                 8.7775
 Frc consts  --      0.0380                 0.0906                 0.2235
 IR Inten    --      3.2050                 1.8063                14.8639

                     22                     23                     24
                      A                      A                      A
 Frequencies --    211.5650               235.8185               254.6562
 Red. masses --      3.0335                 4.1384                 2.1002
 Frc consts  --      0.0800                 0.1356                 0.0802
 IR Inten    --      2.6353                 0.2888                 1.1207

                     25                     26                     27
                      A                      A                      A
 Frequencies --    266.5302               297.5476               314.8242
 Red. masses --      2.1209                 4.7463                 5.5180
 Frc consts  --      0.0888                 0.2476                 0.3222
 IR Inten    --      3.6168                 0.9286                 6.2227

                     28                     29                     30
                      A                      A                      A
 Frequencies --    323.1996               344.7624               352.6023
 Red. masses --      4.3032                 4.4512                24.6899
 Frc consts  --      0.2648                 0.3117                 1.8086
 IR Inten    --      2.1627                 0.2023                27.3570

                     31                     32                     33
                      A                      A                      A
 Frequencies --    379.1756               395.5936               403.7255
 Red. masses --      3.7651                 3.7862                 3.1625
 Frc consts  --      0.3189                 0.3491                 0.3037
 IR Inten    --      6.3773                 4.9390                 6.1927

                     34                     35                     36
                      A                      A                      A
 Frequencies --    407.9370               410.2775               422.7277
 Red. masses --      3.5705                 7.5340                29.2646
 Frc consts  --      0.3501                 0.7472                 3.0812
 IR Inten    --     17.9775                47.1640                83.5836

                     37                     38                     39
                      A                      A                      A
 Frequencies --    447.4103               485.2001               523.4554
 Red. masses --      4.0653                 4.3085                 3.3883
 Frc consts  --      0.4795                 0.5976                 0.5470
 IR Inten    --      7.1847                 3.1670                 3.7628

                     40                     41                     42
                      A                      A                      A
 Frequencies --    549.2518               562.3927               608.9770
 Red. masses --      3.1585                 5.0572                 3.1221
 Frc consts  --      0.5614                 0.9424                 0.6822
 IR Inten    --      9.0534                 3.6057                10.7283

                     43                     44                     45
                      A                      A                      A
 Frequencies --    629.7378               631.2801               650.8155
 Red. masses --      6.3118                 6.3453                 3.8798
 Frc consts  --      1.4748                 1.4899                 0.9682
 IR Inten    --      0.0730                 1.4790                11.1478

                     46                     47                     48
                      A                      A                      A
 Frequencies --    679.6334               699.0560               700.7412
 Red. masses --      6.0520                 1.5686                 1.5982
 Frc consts  --      1.6470                 0.4516                 0.4624
 IR Inten    --     11.2229                67.2354                20.5797

                     49                     50                     51
                      A                      A                      A
 Frequencies --    732.2674               757.3899               763.6963
 Red. masses --      3.5997                 2.4181                 2.2923
 Frc consts  --      1.1372                 0.8173                 0.7877
 IR Inten    --     25.6942               102.1367                 2.8785

                     52                     53                     54
                      A                      A                      A
 Frequencies --    789.8150               807.6659               821.2889
 Red. masses --      5.8890                 1.1904                 3.7808
 Frc consts  --      2.1644                 0.4575                 1.5025
 IR Inten    --     11.3384                 4.2577                 9.6405

                     55                     56                     57
                      A                      A                      A
 Frequencies --    834.1268               835.5560               842.2734
 Red. masses --      4.0658                 1.2986                 1.3005
 Frc consts  --      1.6667                 0.5342                 0.5436
 IR Inten    --    120.8559                 7.0693                 4.5055

                     58                     59                     60
                      A                      A                      A
 Frequencies --    862.1480               873.4905               877.3897
 Red. masses --      2.4594                 3.5954                 2.4626
 Frc consts  --      1.0771                 1.6163                 1.1169
 IR Inten    --      2.8624                44.7604                47.0117

                     61                     62                     63
                      A                      A                      A
 Frequencies --    911.0644               926.4959               940.9952
 Red. masses --      1.5022                 1.6997                 2.1017
 Frc consts  --      0.7346                 0.8597                 1.0965
 IR Inten    --      9.3236                18.2824                25.4560

                     64                     65                     66
                      A                      A                      A
 Frequencies --    943.2484               951.7145               973.7412
 Red. masses --      3.5506                 2.7306                 1.3766
 Frc consts  --      1.8613                 1.4572                 0.7690
 IR Inten    --      7.0511                 6.6781                 0.0952

                     67                     68                     69
                      A                      A                      A
 Frequencies --    979.4068               987.8748               995.8525
 Red. masses --      1.3922                 2.2561                 1.3107
 Frc consts  --      0.7868                 1.2972                 0.7658
 IR Inten    --      0.3369                13.6695                 0.1792

                     70                     71                     72
                      A                      A                      A
 Frequencies --    999.0520              1001.2333              1012.8019
 Red. masses --      1.4280                 2.7847                 5.4760
 Frc consts  --      0.8397                 1.6448                 3.3095
 IR Inten    --      0.3671                10.5451                 0.6098

                     73                     74                     75
                      A                      A                      A
 Frequencies --   1014.3119              1028.4342              1050.6622
 Red. masses --      5.2075                 2.5094                 2.2694
 Frc consts  --      3.1566                 1.5638                 1.4760
 IR Inten    --      0.8236                20.9674                 7.9840

                     76                     77                     78
                      A                      A                      A
 Frequencies --   1053.3910              1054.2820              1062.3046
 Red. masses --      2.0428                 2.0196                 2.2337
 Frc consts  --      1.3355                 1.3226                 1.4852
 IR Inten    --      3.0444                 7.8893                15.1825

                     79                     80                     81
                      A                      A                      A
 Frequencies --   1103.5170              1110.8098              1123.9818
 Red. masses --      1.6020                 1.8516                 2.4605
 Frc consts  --      1.1494                 1.3461                 1.8314
 IR Inten    --      3.7701                 5.4637                15.3564

                     82                     83                     84
                      A                      A                      A
 Frequencies --   1131.1621              1133.4020              1160.1761
 Red. masses --      2.2956                 2.2702                 1.5090
 Frc consts  --      1.7306                 1.7182                 1.1967
 IR Inten    --      7.5651                20.7402                28.9677

                     85                     86                     87
                      A                      A                      A
 Frequencies --   1169.7257              1174.2267              1175.8052
 Red. masses --      1.6437                 1.1153                 1.4610
 Frc consts  --      1.3251                 0.9060                 1.1901
 IR Inten    --     15.7164                 0.2342                 1.0650

                     88                     89                     90
                      A                      A                      A
 Frequencies --   1176.1752              1201.9510              1204.2945
 Red. masses --      1.1603                 1.1256                 1.1261
 Frc consts  --      0.9457                 0.9581                 0.9623
 IR Inten    --      1.0182                 3.0410                 0.6045

                     91                     92                     93
                      A                      A                      A
 Frequencies --   1212.8295              1227.9745              1247.2563
 Red. masses --      2.1199                 1.6082                 1.7434
 Frc consts  --      1.8372                 1.4288                 1.5979
 IR Inten    --    138.4780                11.1721                16.3254

                     94                     95                     96
                      A                      A                      A
 Frequencies --   1258.6849              1281.0621              1285.9748
 Red. masses --      1.5636                 1.6601                 1.2892
 Frc consts  --      1.4595                 1.6052                 1.2561
 IR Inten    --     27.0994                17.6435                 9.9396

                     97                     98                     99
                      A                      A                      A
 Frequencies --   1290.3442              1307.2009              1322.5690
 Red. masses --      1.2898                 1.7098                 1.9630
 Frc consts  --      1.2653                 1.7214                 2.0230
 IR Inten    --     11.8421                67.0643                20.2659

                    100                    101                    102
                      A                      A                      A
 Frequencies --   1331.3683              1339.7698              1350.5469
 Red. masses --      1.6448                 1.7095                 1.4246
 Frc consts  --      1.7177                 1.8079                 1.5310
 IR Inten    --     16.4483                 1.2030                 4.8443

                    103                    104                    105
                      A                      A                      A
 Frequencies --   1361.7230              1364.3827              1366.5636
 Red. masses --      3.2964                 1.5587                 3.6121
 Frc consts  --      3.6014                 1.7095                 3.9743
 IR Inten    --      0.9162                26.8978                 1.4865

                    106                    107                    108
                      A                      A                      A
 Frequencies --   1386.5719              1409.0608              1416.6131
 Red. masses --      1.5299                 1.7891                 1.5309
 Frc consts  --      1.7330                 2.0929                 1.8100
 IR Inten    --     45.4792                15.6626                 2.3210

                    109                    110                    111
                      A                      A                      A
 Frequencies --   1472.2588              1474.3331              1481.7316
 Red. masses --      2.2908                 1.0439                 1.0987
 Frc consts  --      2.9255                 1.3369                 1.4212
 IR Inten    --      7.0787                 5.4325                 5.5347

                    112                    113                    114
                      A                      A                      A
 Frequencies --   1485.5987              1486.8391              1499.6236
 Red. masses --      1.0518                 2.1122                 1.1213
 Frc consts  --      1.3677                 2.7511                 1.4857
 IR Inten    --      2.6604                 9.6896                 5.6347

                    115                    116                    117
                      A                      A                      A
 Frequencies --   1506.7888              1527.0743              1527.4529
 Red. masses --      1.0884                 2.3505                 2.3831
 Frc consts  --      1.4559                 3.2294                 3.2759
 IR Inten    --     12.7417                 4.7586                 2.1679

                    118                    119                    120
                      A                      A                      A
 Frequencies --   1631.7012              1634.2416              1654.1294
 Red. masses --      5.8849                 5.7823                 5.8715
 Frc consts  --      9.2315                 9.0988                 9.4653
 IR Inten    --      0.1999                 0.3080                 1.7606

                    121                    122                    123
                      A                      A                      A
 Frequencies --   1654.3369              1785.6269              3040.0167
 Red. masses --      5.8460                12.0594                 1.0352
 Frc consts  --      9.4266                22.6546                 5.6366
 IR Inten    --      3.4696               224.7945                15.2681

                    124                    125                    126
                      A                      A                      A
 Frequencies --   3044.5018              3047.0691              3057.6578
 Red. masses --      1.0649                 1.0800                 1.0670
 Frc consts  --      5.8155                 5.9080                 5.8773
 IR Inten    --     26.0904                 8.0472                34.7662

                    127                    128                    129
                      A                      A                      A
 Frequencies --   3074.7545              3096.5781              3104.7932
 Red. masses --      1.0644                 1.1002                 1.0885
 Frc consts  --      5.9289                 6.2154                 6.1824
 IR Inten    --      6.7936                14.7205                11.2518

                    130                    131                    132
                      A                      A                      A
 Frequencies --   3112.9095              3125.6093              3127.5194
 Red. masses --      1.1022                 1.1002                 1.1048
 Frc consts  --      6.2928                 6.3327                 6.3669
 IR Inten    --     14.4002                21.4664                21.1348

                    133                    134                    135
                      A                      A                      A
 Frequencies --   3135.3979              3147.1586              3159.2126
 Red. masses --      1.0892                 1.1013                 1.0872
 Frc consts  --      6.3089                 6.4266                 6.3930
 IR Inten    --      8.1348                14.4929                 6.1148

                    136                    137                    138
                      A                      A                      A
 Frequencies --   3171.7227              3175.6191              3179.3020
 Red. masses --      1.0850                 1.0875                 1.0882
 Frc consts  --      6.4310                 6.4618                 6.4807
 IR Inten    --      0.1653                 2.1478                 1.3446

                    139                    140                    141
                      A                      A                      A
 Frequencies --   3186.2298              3186.5389              3194.6557
 Red. masses --      1.0916                 1.0927                 1.0952
 Frc consts  --      6.5295                 6.5373                 6.5853
 IR Inten    --      8.1519                13.2857                 9.7293

                    142                    143                    144
                      A                      A                      A
 Frequencies --   3197.7226              3200.9868              3232.7112
 Red. masses --      1.0980                 1.0992                 1.0915
 Frc consts  --      6.6151                 6.6360                 6.7209
 IR Inten    --     14.7828                10.0692                 0.0406

 - Thermochemistry -
 -------------------
 Temperature   298.150 Kelvin.  Pressure   1.00000 Atm.
 Atom     1 has atomic number  6 and mass  12.00000

 Molecular mass:   482.99839 amu.
 Principal axes and moments of inertia in atomic units:
                           1         2         3
     Eigenvalues --  ******************************
           X            0.99978   0.01352   0.01582
           Y           -0.01304   0.99945  -0.03044
           Z           -0.01622   0.03022   0.99941
 This molecule is an asymmetric top.
 Rotational symmetry number  1.
 Warning -- assumption of classical behavior for rotation
           may cause significant error
 Rotational temperatures (Kelvin)      0.00862     0.00633     0.00548
 Rotational constants (GHZ):           0.17958     0.13195     0.11423
 Zero-point vibrational energy    1018289.8 (Joules/Mol)
                                  243.37709 (Kcal/Mol)
 Warning -- explicit consideration of  42 degrees of freedom as
           vibrations may cause significant error
 Vibrational temperatures:     22.38    31.65    42.89    57.74    60.93
          (Kelvin)             67.95    81.39    84.25    88.64   104.78
                              127.76   131.02   147.26   157.33   165.58
                              175.03   198.71   220.22   235.00   271.12
                              299.09   304.39   339.29   366.39   383.48
                              428.10   452.96   465.01   496.04   507.32
                              545.55   569.17   580.87   586.93   590.30
                              608.21   643.72   698.09   753.14   790.25
                              809.16   876.18   906.05   908.27   936.38
                              977.84  1005.79  1008.21  1053.57  1089.72
                             1098.79  1136.37  1162.05  1181.65  1200.12
                             1202.18  1211.84  1240.44  1256.76  1262.37
                             1310.82  1333.02  1353.88  1357.12  1369.30
                             1401.00  1409.15  1421.33  1432.81  1437.41
                             1440.55  1457.20  1459.37  1479.69  1511.67
                             1515.59  1516.88  1528.42  1587.71  1598.21
                             1617.16  1627.49  1630.71  1669.23  1682.97
                             1689.45  1691.72  1692.25  1729.34  1732.71
                             1744.99  1766.78  1794.52  1810.97  1843.16
                             1850.23  1856.52  1880.77  1902.88  1915.54
                             1927.63  1943.14  1959.22  1963.04  1966.18
                             1994.97  2027.32  2038.19  2118.25  2121.24
                             2131.88  2137.45  2139.23  2157.62  2167.93
                             2197.12  2197.66  2347.65  2351.31  2379.92
                             2380.22  2569.12  4373.91  4380.36  4384.05
                             4399.29  4423.89  4455.29  4467.10  4478.78
                             4497.05  4499.80  4511.14  4528.06  4545.40
                             4563.40  4569.01  4574.31  4584.27  4584.72
                             4596.40  4600.81  4605.51  4651.15

 Zero-point correction=                           0.387846 (Hartree/Particle)
 Thermal correction to Energy=                    0.416406
 Thermal correction to Enthalpy=                  0.417351
 Thermal correction to Gibbs Free Energy=         0.322704
 Sum of electronic and zero-point Energies=          -3683.627473
 Sum of electronic and thermal Energies=             -3683.598912
 Sum of electronic and thermal Enthalpies=           -3683.597968
 Sum of electronic and thermal Free Energies=        -3683.692614

                     E (Thermal)             CV                S
                      KCal/Mol        Cal/Mol-Kelvin    Cal/Mol-Kelvin
 Total                  261.299            104.050            199.199
 Electronic               0.000              0.000              3.561
 Translational            0.889              2.981             44.412
 Rotational               0.889              2.981             36.028
 Vibrational            259.521             98.088            115.199
 Vibration     1          0.593              1.986              7.133
 Vibration     2          0.593              1.985              6.445
 Vibration     3          0.594              1.984              5.842
 Vibration     4          0.594              1.981              5.252
 Vibration     5          0.595              1.980              5.146
 Vibration     6          0.595              1.979              4.930
 Vibration     7          0.596              1.975              4.573
 Vibration     8          0.596              1.974              4.505
 Vibration     9          0.597              1.973              4.405
 Vibration    10          0.599              1.967              4.075
 Vibration    11          0.602              1.957              3.686
 Vibration    12          0.602              1.956              3.637
 Vibration    13          0.604              1.947              3.409
 Vibration    14          0.606              1.942              3.280
 Vibration    15          0.608              1.937              3.181
 Vibration    16          0.609              1.931              3.074
 Vibration    17          0.614              1.915              2.830
 Vibration    18          0.619              1.899              2.634
 Vibration    19          0.623              1.887              2.511
 Vibration    20          0.633              1.856              2.243
 Vibration    21          0.641              1.829              2.062
 Vibration    22          0.643              1.823              2.030
 Vibration    23          0.655              1.786              1.834
 Vibration    24          0.665              1.755              1.698
 Vibration    25          0.672              1.735              1.619
 Vibration    26          0.691              1.678              1.431
 Vibration    27          0.702              1.645              1.337
 Vibration    28          0.708              1.629              1.294
 Vibration    29          0.723              1.586              1.190
 Vibration    30          0.729              1.570              1.155
 Vibration    31          0.749              1.515              1.042
 Vibration    32          0.762              1.480              0.979
 Vibration    33          0.769              1.462              0.949
 Vibration    34          0.773              1.453              0.934
 Vibration    35          0.774              1.448              0.926
 Vibration    36          0.785              1.421              0.883
 Vibration    37          0.807              1.367              0.804
 Vibration    38          0.841              1.283              0.696
 Vibration    39          0.878              1.198              0.602
 Vibration    40          0.905              1.141              0.546
 Vibration    41          0.918              1.113              0.519
 Vibration    42          0.968              1.013              0.434

 Optimization completed.
    -- Stationary point found.
 Normal termination of Gaussian 16 at Mon Jun  7 02:50:13 2021.
