 Gaussian 16, Revision A.03,
 Gaussian 16:  ES64L-G16RevA.03 25-Dec-2016

 -------------------------------------------------------------------
 #p freq=noraman b3lyp jul-cc-pvdz pop=cm5 empiricaldispersion=gd3bj
 -------------------------------------------------------------------

 -----
 title
 -----
 Symbolic Z-matrix:
 Charge =  0 Multiplicity = 6

                         Standard orientation:
 ---------------------------------------------------------------------
 Center     Atomic      Atomic             Coordinates (Angstroms)
 Number     Number       Type             X           Y           Z
 ---------------------------------------------------------------------
      1          6           0       -2.476255    1.028319    0.585041
      2          6           0       -1.237211    0.462931    0.919802
      3          6           0       -0.742374    0.621577    2.217579
      4          6           0       -1.479212    1.329620    3.169735
      5          6           0       -2.713787    1.891246    2.833446
      6          6           0       -3.211488    1.736335    1.535502
      7          6           0       -0.423423   -0.310650   -0.098689
      8          6           0       -1.136479   -1.569946   -0.765778
      9          6           0       -1.129144   -1.368219   -2.285270
     10          6           0        0.000815   -0.367875   -2.544454
     11          6           0       -0.220648    0.674131   -1.425386
     12          6           0        0.883944    1.539460   -1.163637
     13          8           0        0.782664   -0.660162    0.394545
     14         26           0        2.339051   -1.639827    0.311285
     15         17           0        2.008725   -3.263233   -1.172635
     16         17           0        2.867398   -2.315144    2.339603
     17         17           0        3.848527   -0.150659   -0.499743
     18          1           0        0.212337    0.167830    2.474897
     19          1           0       -1.088578    1.432907    4.182578
     20          1           0       -3.289034    2.441175    3.579066
     21          1           0       -4.177306    2.163959    1.263533
     22          1           0       -2.889449    0.895583   -0.413840
     23          1           0       -0.464355   -2.391620   -0.502393
     24          6           0       -2.455787   -1.915713   -0.112077
     25          1           0       -0.966690   -2.314704   -2.814668
     26          1           0       -2.084991   -0.951708   -2.624380
     27          1           0        0.984032   -0.839658   -2.431273
     28          1           0       -0.050963    0.100239   -3.535062
     29          1           0       -1.167243    1.200434   -1.574990
     30          8           0       -3.528534   -1.553152   -0.853373
     31          8           0       -2.547231   -2.437669    0.976046
     32          6           0       -4.817708   -1.801234   -0.240672
     33          6           0       -5.878578   -1.357073   -1.224168
     34          1           0       -4.888979   -2.869850   -0.000765
     35          1           0       -4.861273   -1.240724    0.703260
     36          1           0       -6.874192   -1.532716   -0.793058
     37          1           0       -5.783842   -0.285439   -1.449426
     38          1           0       -5.803467   -1.920402   -2.164340
     39          6           0        0.858295    2.924220   -0.917205
     40          6           0        2.094268    3.559426   -0.608119
     41          6           0       -0.341858    3.687303   -0.916862
     42          6           0        2.127533    4.916301   -0.323057
     43          1           0        3.000967    2.952845   -0.587881
     44          6           0       -0.298294    5.038440   -0.620303
     45          1           0       -1.291362    3.202822   -1.135971
     46          6           0        0.933585    5.651163   -0.329438
     47          1           0        3.071375    5.405363   -0.085342
     48          1           0       -1.213985    5.628489   -0.610263
     49          1           0        0.958204    6.717458   -0.100127
     50          1           0        1.862041    1.056119   -1.069480
 ---------------------------------------------------------------------

 SCF Done:  E(UB3LYP) =  -3683.98085608     A.U. after   26 cycles

 The electronic state is 6-A.
 Alpha  occ. eigenvalues -- -256.17057-101.49237-101.49119-101.48501 -30.16497
 Alpha  occ. eigenvalues --  -26.01813 -26.01735 -26.01624 -19.20147 -19.14419
 Alpha  occ. eigenvalues --  -19.14090 -10.31980 -10.29734 -10.28877 -10.27119
 Alpha  occ. eigenvalues --  -10.26674 -10.26538 -10.26484 -10.25666 -10.25432
 Alpha  occ. eigenvalues --  -10.25294 -10.23998 -10.21685 -10.21373 -10.21239
 Alpha  occ. eigenvalues --  -10.21157 -10.21098 -10.20916 -10.20609 -10.20312
 Alpha  occ. eigenvalues --  -10.20082 -10.20008  -9.40925  -9.40825  -9.40219
 Alpha  occ. eigenvalues --   -7.16796  -7.16689  -7.16472  -7.16452  -7.16380
 Alpha  occ. eigenvalues --   -7.16367  -7.16086  -7.15781  -7.15752  -3.64249
 Alpha  occ. eigenvalues --   -2.41851  -2.41566  -2.41412  -1.11705  -1.03717
 Alpha  occ. eigenvalues --   -1.02819  -0.93338  -0.88554  -0.87383  -0.84599
 Alpha  occ. eigenvalues --   -0.81852  -0.79994  -0.78374  -0.77904  -0.76953
 Alpha  occ. eigenvalues --   -0.76557  -0.76339  -0.75834  -0.73379  -0.70572
 Alpha  occ. eigenvalues --   -0.67519  -0.66618  -0.64510  -0.63054  -0.62406
 Alpha  occ. eigenvalues --   -0.60940  -0.59376  -0.58041  -0.57545  -0.54976
 Alpha  occ. eigenvalues --   -0.53942  -0.53303  -0.51758  -0.50789  -0.50159
 Alpha  occ. eigenvalues --   -0.49762  -0.48946  -0.48599  -0.47683  -0.47286
 Alpha  occ. eigenvalues --   -0.46892  -0.45707  -0.45111  -0.44747  -0.44563
 Alpha  occ. eigenvalues --   -0.44406  -0.44257  -0.43995  -0.43691  -0.42823
 Alpha  occ. eigenvalues --   -0.42310  -0.42281  -0.41542  -0.41039  -0.40618
 Alpha  occ. eigenvalues --   -0.40300  -0.39650  -0.38606  -0.38172  -0.38072
 Alpha  occ. eigenvalues --   -0.37486  -0.37015  -0.36245  -0.36070  -0.35202
 Alpha  occ. eigenvalues --   -0.34249  -0.33682  -0.32376  -0.31721  -0.31560
 Alpha  occ. eigenvalues --   -0.31426  -0.29051  -0.28498  -0.28176  -0.27813
 Alpha  occ. eigenvalues --   -0.27569  -0.27449  -0.27283  -0.27048  -0.26553
 Alpha  occ. eigenvalues --   -0.26143  -0.26128
 Alpha virt. eigenvalues --   -0.17312  -0.07541  -0.04899  -0.03888  -0.03372
 Alpha virt. eigenvalues --   -0.02921  -0.02140  -0.00976  -0.00813  -0.00534
 Alpha virt. eigenvalues --   -0.00210   0.00560   0.00965   0.01268   0.01538

  Beta  occ. eigenvalues -- -256.16872-101.49084-101.48934-101.48307 -30.07589
  Beta  occ. eigenvalues --  -25.94332 -25.94316 -25.94248 -19.20146 -19.14088
  Beta  occ. eigenvalues --  -19.13732 -10.31980 -10.29714 -10.28865 -10.27114
  Beta  occ. eigenvalues --  -10.26670 -10.26539 -10.26480 -10.25669 -10.25434
  Beta  occ. eigenvalues --  -10.25294 -10.23980 -10.21687 -10.21353 -10.21221
  Beta  occ. eigenvalues --  -10.21155 -10.21097 -10.20917 -10.20609 -10.20311
  Beta  occ. eigenvalues --  -10.20082 -10.20008  -9.40774  -9.40644  -9.40029
  Beta  occ. eigenvalues --   -7.16516  -7.16385  -7.16291  -7.16252  -7.16131
  Beta  occ. eigenvalues --   -7.16119  -7.15782  -7.15499  -7.15494  -3.43492
  Beta  occ. eigenvalues --   -2.19807  -2.19761  -2.19662  -1.11702  -1.02906
  Beta  occ. eigenvalues --   -1.02320  -0.93319  -0.88387  -0.87368  -0.84551
  Beta  occ. eigenvalues --   -0.81847  -0.79979  -0.78270  -0.77877  -0.76549
  Beta  occ. eigenvalues --   -0.75872  -0.75172  -0.74514  -0.73337  -0.70469
  Beta  occ. eigenvalues --   -0.67472  -0.66543  -0.64468  -0.62977  -0.62375
  Beta  occ. eigenvalues --   -0.60922  -0.59089  -0.58019  -0.57297  -0.54892
  Beta  occ. eigenvalues --   -0.53428  -0.53174  -0.51361  -0.50776  -0.49904
  Beta  occ. eigenvalues --   -0.49471  -0.48752  -0.48506  -0.47502  -0.47030
  Beta  occ. eigenvalues --   -0.46608  -0.45277  -0.44732  -0.44244  -0.43919
  Beta  occ. eigenvalues --   -0.42490  -0.42341  -0.41810  -0.41619  -0.40858
  Beta  occ. eigenvalues --   -0.40338  -0.39657  -0.38622  -0.38166  -0.38068
  Beta  occ. eigenvalues --   -0.37530  -0.37005  -0.36226  -0.35964  -0.35263
  Beta  occ. eigenvalues --   -0.34648  -0.34064  -0.32613  -0.32363  -0.32223
  Beta  occ. eigenvalues --   -0.31568  -0.30434  -0.30342  -0.29852  -0.29356
  Beta  occ. eigenvalues --   -0.29116  -0.28157  -0.27347  -0.27135  -0.26591
  Beta  occ. eigenvalues --   -0.26271  -0.26178
  Beta virt. eigenvalues --   -0.17323  -0.10928  -0.10791  -0.09965  -0.09656
  Beta virt. eigenvalues --   -0.08691  -0.07522  -0.04855  -0.03858  -0.03344
  Beta virt. eigenvalues --   -0.02909  -0.02136  -0.00952  -0.00786  -0.00503

 Mulliken charges and spin densities:
               1          2
     1  C   -0.301381   0.000785
     2  C    3.109392   0.004088
     3  C   -0.747989  -0.004206
     4  C   -0.077133   0.004140
     5  C    0.281616  -0.001433
     6  C    0.007856   0.002059
     7  C   -1.645794  -0.006557
     8  C    1.181472  -0.001761
     9  C    0.577514   0.003061
    10  C    0.908637  -0.003118
    11  C   -0.979436   0.030223
    12  C    0.002508  -0.007305
    13  O   -0.666770   0.221175
    14  Fe   0.692104   4.033988
    15  Cl  -0.466403   0.241275
    16  Cl  -0.432637   0.269335
    17  Cl  -0.486148   0.197223
    18  H   -0.178438   0.000051
    19  H   -0.167397  -0.000008
    20  H   -0.181551   0.000029
    21  H   -0.189630   0.000196
    22  H   -0.249817  -0.000039
    23  H   -0.228481   0.001691
    24  C    0.536213   0.002072
    25  H   -0.138083   0.000104
    26  H   -0.096720  -0.000045
    27  H   -0.025189   0.001032
    28  H   -0.171793   0.000319
    29  H   -0.253367   0.000233
    30  O   -0.761083   0.000441
    31  O   -0.616635   0.000646
    32  C    0.441994   0.000029
    33  C    0.096593   0.000004
    34  H   -0.052844   0.000011
    35  H   -0.044590   0.000014
    36  H   -0.013392   0.000004
    37  H    0.005580  -0.000001
    38  H    0.014947   0.000001
    39  C    2.749228   0.003232
    40  C   -0.353942   0.001886
    41  C    0.197729   0.003529
    42  C   -0.123805  -0.002847
    43  H   -0.163828  -0.000028
    44  C   -0.182043  -0.002574
    45  H   -0.251269  -0.000053
    46  C    0.267883   0.004711
    47  H   -0.158113   0.000030
    48  H   -0.159752   0.000015
    49  H   -0.147431  -0.000075
    50  H   -0.358383   0.002415
 Sum of Mulliken charges =  -0.00000   5.00000

 Dipole moment (field-independent basis, Debye):
    X=             -8.2997    Y=             13.9834    Z=             -4.3295  Tot=             16.8275
 Quadrupole moment (field-independent basis, Debye-Ang):
   XX=           -202.2413   YY=           -173.6710   ZZ=           -199.6495
   XY=             19.4439   XZ=              0.8366   YZ=              5.7442

  Exact polarizability: 374.444   8.674 433.554  -0.392   2.724 304.340
 Approx polarizability: 563.944  13.187 665.831  11.267  10.358 518.996

 ******    2 imaginary frequencies (negative Signs) ******

                      1                      2                      3
                      A                      A                      A
 Frequencies --    -21.6798                -6.9405                14.5824
 Red. masses --      5.5396                 4.9984                 5.2678
 Frc consts  --      0.0015                 0.0001                 0.0007
 IR Inten    --      3.4495                 0.2654                 0.0922

                      4                      5                      6
                      A                      A                      A
 Frequencies --     22.1421                35.7242                41.9149
 Red. masses --      9.9155                 5.8951                 5.8512
 Frc consts  --      0.0029                 0.0044                 0.0061
 IR Inten    --      0.2913                 0.6740                 0.1744

                      7                      8                      9
                      A                      A                      A
 Frequencies --     45.6244                50.0011                68.3582
 Red. masses --      4.3461                 3.9947                 4.6887
 Frc consts  --      0.0053                 0.0059                 0.0129
 IR Inten    --      0.4303                 0.0756                 0.4199

                     10                     11                     12
                      A                      A                      A
 Frequencies --     78.7020                86.4901                89.4753
 Red. masses --      7.8386                 2.8102                13.4358
 Frc consts  --      0.0286                 0.0124                 0.0634
 IR Inten    --      2.2613                 0.4612                 0.2203

                     13                     14                     15
                      A                      A                      A
 Frequencies --     97.6218               110.0639               119.5546
 Red. masses --     17.6453                 6.0749                16.9990
 Frc consts  --      0.0991                 0.0434                 0.1432
 IR Inten    --      0.0242                 3.4438                 1.2207

                     16                     17                     18
                      A                      A                      A
 Frequencies --    121.8358               129.2283               139.4953
 Red. masses --     10.8857                 6.4014                 3.3726
 Frc consts  --      0.0952                 0.0630                 0.0387
 IR Inten    --      3.4566                 7.3429                 0.4557

                     19                     20                     21
                      A                      A                      A
 Frequencies --    149.4090               158.9171               195.5496
 Red. masses --      4.1745                 6.9155                 2.7530
 Frc consts  --      0.0549                 0.1029                 0.0620
 IR Inten    --      3.3607                13.2408                 9.8864

                     22                     23                     24
                      A                      A                      A
 Frequencies --    214.1462               233.6862               257.4103
 Red. masses --      3.4524                 5.4019                 3.4962
 Frc consts  --      0.0933                 0.1738                 0.1365
 IR Inten    --      2.9336                18.9153                30.9534

                     25                     26                     27
                      A                      A                      A
 Frequencies --    264.1293               269.3362               279.2820
 Red. masses --      1.8929                 3.3469                 5.0988
 Frc consts  --      0.0778                 0.1430                 0.2343
 IR Inten    --      6.2707                 0.7451                 6.9635

                     28                     29                     30
                      A                      A                      A
 Frequencies --    302.5608               326.3765               345.5184
 Red. masses --      4.8911                15.0319                 6.1023
 Frc consts  --      0.2638                 0.9434                 0.4292
 IR Inten    --      4.3423                44.8712                 9.8078

                     31                     32                     33
                      A                      A                      A
 Frequencies --    364.6006               372.9211               385.8250
 Red. masses --     29.2630                 3.4146                 3.3762
 Frc consts  --      2.2919                 0.2798                 0.2961
 IR Inten    --     87.2507                 3.1708                 5.9639

                     34                     35                     36
                      A                      A                      A
 Frequencies --    400.3920               406.6776               416.9076
 Red. masses --     36.4146                 3.4677                 3.1747
 Frc consts  --      3.4395                 0.3379                 0.3251
 IR Inten    --     96.2750                32.8509                 4.8295

                     37                     38                     39
                      A                      A                      A
 Frequencies --    431.4447               438.9066               453.2342
 Red. masses --      4.2421                 4.0092                 4.2370
 Frc consts  --      0.4652                 0.4550                 0.5128
 IR Inten    --      6.1089                66.2241                37.0798

                     40                     41                     42
                      A                      A                      A
 Frequencies --    491.2105               523.4773               548.7259
 Red. masses --      3.0966                 3.2960                 2.9572
 Frc consts  --      0.4402                 0.5322                 0.5246
 IR Inten    --     36.5529                48.0766                33.4901

                     43                     44                     45
                      A                      A                      A
 Frequencies --    581.9413               599.5673               621.0627
 Red. masses --      3.8552                 5.8867                 6.1434
 Frc consts  --      0.7692                 1.2468                 1.3961
 IR Inten    --     87.0183               125.1932                 6.5345

                     46                     47                     48
                      A                      A                      A
 Frequencies --    630.3829               639.2464               666.0451
 Red. masses --      6.2957                 4.9577                 1.7269
 Frc consts  --      1.4740                 1.1936                 0.4513
 IR Inten    --      1.1573                14.0849                20.7999

                     49                     50                     51
                      A                      A                      A
 Frequencies --    687.5875               710.6075               713.5414
 Red. masses --      4.1213                 1.6778                 4.4264
 Frc consts  --      1.1480                 0.4992                 1.3278
 IR Inten    --    166.4929               130.5944                19.3036

                     52                     53                     54
                      A                      A                      A
 Frequencies --    760.5179               774.6943               780.1456
 Red. masses --      2.6024                 1.8780                 3.2968
 Frc consts  --      0.8868                 0.6641                 1.1822
 IR Inten    --      1.2632                30.7763                30.4837

                     55                     56                     57
                      A                      A                      A
 Frequencies --    807.4655               828.7714               838.1223
 Red. masses --      1.1520                 3.6710                 1.3766
 Frc consts  --      0.4425                 1.4856                 0.5697
 IR Inten    --      1.4003                79.0820                 5.9293

                     58                     59                     60
                      A                      A                      A
 Frequencies --    853.0751               855.1802               870.3857
 Red. masses --      1.3733                 3.1109                 2.6953
 Frc consts  --      0.5888                 1.3405                 1.2030
 IR Inten    --      1.0172                15.4422                14.7350

                     61                     62                     63
                      A                      A                      A
 Frequencies --    895.8041               911.2056               932.9605
 Red. masses --      1.9824                 2.2214                 1.7975
 Frc consts  --      0.9373                 1.0867                 0.9218
 IR Inten    --     20.7634                 5.5215                 9.3298

                     64                     65                     66
                      A                      A                      A
 Frequencies --    947.5717               959.2800               982.9994
 Red. masses --      2.2524                 1.3794                 1.3568
 Frc consts  --      1.1916                 0.7479                 0.7725
 IR Inten    --     13.5063                 1.1537                 0.3352

                     67                     68                     69
                      A                      A                      A
 Frequencies --    988.5029               992.0272               995.0020
 Red. masses --      2.2911                 2.9961                 1.5228
 Frc consts  --      1.3190                 1.7372                 0.8883
 IR Inten    --     13.0964                25.2984                 0.3103

                     70                     71                     72
                      A                      A                      A
 Frequencies --    999.6204              1001.7551              1013.3194
 Red. masses --      4.7488                 1.4101                 4.8623
 Frc consts  --      2.7958                 0.8337                 2.9416
 IR Inten    --      7.0384                 2.8576                 0.4806

                     73                     74                     75
                      A                      A                      A
 Frequencies --   1017.6653              1026.3526              1039.8742
 Red. masses --      1.3762                 2.4066                 2.1863
 Frc consts  --      0.8397                 1.4936                 1.3929
 IR Inten    --      0.5733                12.8819                 2.0585

                     76                     77                     78
                      A                      A                      A
 Frequencies --   1041.9152              1052.4865              1065.6379
 Red. masses --      1.8787                 2.0916                 3.6682
 Frc consts  --      1.2016                 1.3651                 2.4543
 IR Inten    --      1.1016                 5.9901               141.1618

                     79                     80                     81
                      A                      A                      A
 Frequencies --   1084.2922              1104.2424              1109.3620
 Red. masses --      1.9590                 1.5751                 1.5691
 Frc consts  --      1.3570                 1.1316                 1.1377
 IR Inten    --     99.7186                15.9979                16.4174

                     82                     83                     84
                      A                      A                      A
 Frequencies --   1121.9082              1131.4182              1158.1188
 Red. masses --      2.4465                 2.1127                 1.7495
 Frc consts  --      1.8143                 1.5934                 1.3825
 IR Inten    --    411.3851                13.3546               105.5346

                     85                     86                     87
                      A                      A                      A
 Frequencies --   1171.3093              1172.3769              1182.7079
 Red. masses --      1.5606                 1.0854                 1.0918
 Frc consts  --      1.2615                 0.8789                 0.8998
 IR Inten    --      2.5917                 0.0636                 3.5650

                     88                     89                     90
                      A                      A                      A
 Frequencies --   1193.2693              1199.3882              1199.6604
 Red. masses --      1.2726                 1.2527                 1.1560
 Frc consts  --      1.0676                 1.0618                 0.9802
 IR Inten    --      9.7904                13.7702                27.7845

                     91                     92                     93
                      A                      A                      A
 Frequencies --   1215.7586              1232.7406              1253.6045
 Red. masses --      2.5605                 1.7392                 1.8914
 Frc consts  --      2.2298                 1.5572                 1.7512
 IR Inten    --     57.3560                 5.6833               314.7915

                     94                     95                     96
                      A                      A                      A
 Frequencies --   1264.7778              1283.9578              1293.7776
 Red. masses --      3.4599                 1.0977                 1.3522
 Frc consts  --      3.2609                 1.0662                 1.3335
 IR Inten    --    290.8230                 0.3558                25.7643

                     97                     98                     99
                      A                      A                      A
 Frequencies --   1299.5706              1312.8285              1328.8713
 Red. masses --      1.4374                 1.4724                 1.5804
 Frc consts  --      1.4303                 1.4952                 1.6444
 IR Inten    --      3.8319                65.7748               119.8019

                    100                    101                    102
                      A                      A                      A
 Frequencies --   1338.1388              1356.1291              1362.2666
 Red. masses --      1.4867                 1.6020                 1.5830
 Frc consts  --      1.5685                 1.7358                 1.7308
 IR Inten    --     47.3509                49.8418                10.9791

                    103                    104                    105
                      A                      A                      A
 Frequencies --   1363.3700              1364.7079              1379.4736
 Red. masses --      2.0112                 2.2992                 1.3095
 Frc consts  --      2.2025                 2.5230                 1.4682
 IR Inten    --     20.5286                28.2655                 7.3919

                    106                    107                    108
                      A                      A                      A
 Frequencies --   1398.0053              1414.9084              1466.6432
 Red. masses --      4.9175                 1.4540                 2.2638
 Frc consts  --      5.6625                 1.7150                 2.8690
 IR Inten    --     48.6161                 9.6761                47.9776

                    109                    110                    111
                      A                      A                      A
 Frequencies --   1473.3673              1475.7711              1481.3103
 Red. masses --      2.3227                 1.0448                 1.0884
 Frc consts  --      2.9707                 1.3406                 1.4071
 IR Inten    --      9.3998                 5.0332                12.2372

                    112                    113                    114
                      A                      A                      A
 Frequencies --   1485.8609              1495.3179              1507.6477
 Red. masses --      1.0510                 1.1064                 1.0844
 Frc consts  --      1.3671                 1.4575                 1.4523
 IR Inten    --      1.1533                12.8616                 5.3871

                    115                    116                    117
                      A                      A                      A
 Frequencies --   1509.5424              1519.9730              1574.7503
 Red. masses --      2.0125                 2.2559                 3.2744
 Frc consts  --      2.7019                 3.0708                 4.7842
 IR Inten    --     17.9178                 4.9869               315.9547

                    118                    119                    120
                      A                      A                      A
 Frequencies --   1602.0031              1628.6498              1644.3908
 Red. masses --      4.5268                 5.9673                 5.6307
 Frc consts  --      6.8450                 9.3258                 8.9706
 IR Inten    --     20.2569                 2.8495               221.3937

                    121                    122                    123
                      A                      A                      A
 Frequencies --   1647.9030              1781.6591              3037.3670
 Red. masses --      5.8110                11.9710                 1.0352
 Frc consts  --      9.2974                22.3888                 5.6267
 IR Inten    --     19.5993               175.5494                17.4883

                    124                    125                    126
                      A                      A                      A
 Frequencies --   3059.9194              3067.2376              3072.6540
 Red. masses --      1.0592                 1.0590                 1.0607
 Frc consts  --      5.8434                 5.8703                 5.9003
 IR Inten    --     12.0257                11.7807                21.4926

                    127                    128                    129
                      A                      A                      A
 Frequencies --   3100.7156              3106.1219              3109.6261
 Red. masses --      1.1050                 1.0929                 1.0918
 Frc consts  --      6.2594                 6.2126                 6.2204
 IR Inten    --      0.1640                92.4364                15.7211

                    130                    131                    132
                      A                      A                      A
 Frequencies --   3116.8311              3117.5718              3124.1811
 Red. masses --      1.1012                 1.0954                 1.0941
 Frc consts  --      6.3028                 6.2724                 6.2921
 IR Inten    --     26.4444                18.9966                 2.0223

                    133                    134                    135
                      A                      A                      A
 Frequencies --   3125.4050              3135.5767              3167.6450
 Red. masses --      1.1061                 1.1002                 1.0850
 Frc consts  --      6.3659                 6.3730                 6.4143
 IR Inten    --     35.5997                 4.5348                 1.3287

                    136                    137                    138
                      A                      A                      A
 Frequencies --   3179.0616              3182.8602              3189.2991
 Red. masses --      1.0889                 1.0873                 1.0925
 Frc consts  --      6.4837                 6.4898                 6.5475
 IR Inten    --      6.9939                 1.2241                15.0675

                    139                    140                    141
                      A                      A                      A
 Frequencies --   3189.8245              3196.5451              3200.7657
 Red. masses --      1.0917                 1.0975                 1.0915
 Frc consts  --      6.5446                 6.6071                 6.5886
 IR Inten    --      3.6029                10.5650                 1.1574

                    142                    143                    144
                      A                      A                      A
 Frequencies --   3209.2320              3216.3277              3218.4316
 Red. masses --      1.0973                 1.0935                 1.0954
 Frc consts  --      6.6583                 6.6647                 6.6852
 IR Inten    --      6.0786                 4.5655                 3.3228

 - Thermochemistry -
 -------------------
 Temperature   298.150 Kelvin.  Pressure   1.00000 Atm.
 Atom     1 has atomic number  6 and mass  12.00000

 Molecular mass:   482.99839 amu.
 Principal axes and moments of inertia in atomic units:
                           1         2         3
     Eigenvalues --  ******************************
           X            0.97941   0.20187   0.00290
           Y           -0.20189   0.97932   0.01338
           Z           -0.00014  -0.01369   0.99991
 This molecule is an asymmetric top.
 Rotational symmetry number  1.
 Warning -- assumption of classical behavior for rotation
           may cause significant error
 Rotational temperatures (Kelvin)      0.00666     0.00605     0.00418
 Rotational constants (GHZ):           0.13879     0.12605     0.08714
    2 imaginary frequencies ignored.
 Zero-point vibrational energy    1012475.6 (Joules/Mol)
                                  241.98749 (Kcal/Mol)
 Warning -- explicit consideration of  42 degrees of freedom as
           vibrations may cause significant error
 Vibrational temperatures:     20.98    31.86    51.40    60.31    65.64
          (Kelvin)             71.94    98.35   113.23   124.44   128.73
                              140.46   158.36   172.01   175.29   185.93
                              200.70   214.97   228.65   281.35   308.11
                              336.22   370.36   380.02   387.51   401.82
                              435.32   469.58   497.12   524.58   536.55
                              555.12   576.07   585.12   599.84   620.75
                              631.49   652.10   706.74   753.17   789.49
                              837.28   862.64   893.57   906.98   919.73
                              958.29   989.28  1022.41  1026.63  1094.22
                             1114.61  1122.46  1161.76  1192.42  1205.87
                             1227.38  1230.41  1252.29  1288.86  1311.02
                             1342.32  1363.34  1380.19  1414.32  1422.24
                             1427.31  1431.59  1438.23  1441.30  1457.94
                             1464.19  1476.69  1496.15  1499.08  1514.29
                             1533.22  1560.05  1588.76  1596.12  1614.18
                             1627.86  1666.27  1685.25  1686.79  1701.65
                             1716.85  1725.65  1726.04  1749.21  1773.64
                             1803.66  1819.73  1847.33  1861.46  1869.79
                             1888.87  1911.95  1925.28  1951.17  1960.00
                             1961.59  1963.51  1984.75  2011.42  2035.74
                             2110.17  2119.85  2123.31  2131.28  2137.82
                             2151.43  2169.17  2171.89  2186.90  2265.71
                             2304.93  2343.26  2365.91  2370.96  2563.41
                             4370.09  4402.54  4413.07  4420.86  4461.24
                             4469.02  4474.06  4484.42  4485.49  4495.00
                             4496.76  4511.40  4557.53  4573.96  4579.43
                             4588.69  4589.45  4599.12  4605.19  4617.37
                             4627.58  4630.61

 Zero-point correction=                           0.385632 (Hartree/Particle)
 Thermal correction to Energy=                    0.413276
 Thermal correction to Enthalpy=                  0.414220
 Thermal correction to Gibbs Free Energy=         0.322536
 Sum of electronic and zero-point Energies=          -3683.595224
 Sum of electronic and thermal Energies=             -3683.567580
 Sum of electronic and thermal Enthalpies=           -3683.566636
 Sum of electronic and thermal Free Energies=        -3683.658320

                     E (Thermal)             CV                S
                      KCal/Mol        Cal/Mol-Kelvin    Cal/Mol-Kelvin
 Total                  259.334            102.229            192.966
 Electronic               0.000              0.000              3.561
 Translational            0.889              2.981             44.412
 Rotational               0.889              2.981             36.598
 Vibrational            257.557             96.267            108.395
 Vibration     1          0.593              1.986              7.262
 Vibration     2          0.593              1.985              6.432
 Vibration     3          0.594              1.982              5.483
 Vibration     4          0.595              1.980              5.166
 Vibration     5          0.595              1.979              4.999
 Vibration     6          0.595              1.978              4.817
 Vibration     7          0.598              1.969              4.200
 Vibration     8          0.600              1.963              3.923
 Vibration     9          0.601              1.959              3.738
 Vibration    10          0.602              1.957              3.672
 Vibration    11          0.603              1.951              3.501
 Vibration    12          0.606              1.941              3.268
 Vibration    13          0.609              1.933              3.108
 Vibration    14          0.609              1.931              3.071
 Vibration    15          0.612              1.924              2.957
 Vibration    16          0.615              1.914              2.811
 Vibration    17          0.618              1.903              2.680
 Vibration    18          0.621              1.893              2.563
 Vibration    19          0.636              1.846              2.175
 Vibration    20          0.644              1.819              2.008
 Vibration    21          0.654              1.789              1.850
 Vibration    22          0.667              1.750              1.679
 Vibration    23          0.671              1.739              1.634
 Vibration    24          0.674              1.730              1.600
 Vibration    25          0.680              1.712              1.538
 Vibration    26          0.694              1.669              1.403
 Vibration    27          0.710              1.623              1.278
 Vibration    28          0.724              1.584              1.187
 Vibration    29          0.738              1.545              1.102
 Vibration    30          0.744              1.528              1.068
 Vibration    31          0.755              1.500              1.016
 Vibration    32          0.766              1.469              0.961
 Vibration    33          0.771              1.456              0.938
 Vibration    34          0.780              1.434              0.903
 Vibration    35          0.792              1.402              0.854
 Vibration    36          0.799              1.385              0.830
 Vibration    37          0.812              1.354              0.786
 Vibration    38          0.847              1.270              0.680
 Vibration    39          0.878              1.198              0.602
 Vibration    40          0.904              1.142              0.547
 Vibration    41          0.939              1.070              0.482
 Vibration    42          0.958              1.033              0.450

 Normal termination of Gaussian 16 at Sun Jul 18 11:49:53 2021.
