 Gaussian 16, Revision A.03,
 Gaussian 16:  ES64L-G16RevA.03 25-Dec-2016

 ----------------------------------------------------------------------
 #p opt freq=noraman b3lyp pop=none empiricaldispersion=gd3bj jul-cc-pv
 dz
 ----------------------------------------------------------------------

 -----
 title
 -----
 Symbolic Z-matrix:
 Charge =  0 Multiplicity = 6

 SCF Done:  E(UB3LYP) =  -3684.01517958     A.U. after   23 cycles
 Optimization completed.
    -- Stationary point found.
 Normal termination of Gaussian 16 at Sun Jun  6 19:34:42 2021.

 ----------------------------------------------------------------------
 #P Geom=AllCheck Guess=TCheck SCRF=Check GenChk UB3LYP/Jul-CC-pVDZ Fre
 q
 ----------------------------------------------------------------------

 Structure from the checkpoint file:  "/scratch/kwaneu.2864378.bmbhpcps002/Gau-3645.chk"
 -----
 title
 -----
 Charge =  0 Multiplicity = 6

                         Standard orientation:
 ---------------------------------------------------------------------
 Center     Atomic      Atomic             Coordinates (Angstroms)
 Number     Number       Type             X           Y           Z
 ---------------------------------------------------------------------
      1          6           0        1.730213    3.231324   -0.155469
      2          6           0        0.686448    2.301327   -0.062237
      3          6           0       -0.459249    2.494175   -0.849810
      4          6           0       -0.546408    3.574777   -1.726189
      5          6           0        0.500489    4.496186   -1.815221
      6          6           0        1.636294    4.323211   -1.021658
      7          6           0        0.736612    1.149847    0.903426
      8          6           0        2.136369    0.761832    1.454081
      9          6           0        2.136958    1.388305    2.865061
     10          6           0        0.701685    1.194589    3.407741
     11          6           0       -0.189547    1.209830    2.155961
     12          6           0       -0.832604   -0.109182    1.688434
     13          8           0       -0.029070   -0.025097    0.401008
     14         26           0       -0.234287   -0.988993   -1.350025
     15         17           0        1.447191   -0.264798   -2.539050
     16         17           0       -2.190196   -0.464238   -2.191866
     17         17           0       -0.151277   -3.102156   -0.746683
     18          1           0       -1.278556    1.781153   -0.811306
     19          1           0       -1.433820    3.687501   -2.349399
     20          1           0        0.434419    5.339613   -2.503337
     21          1           0        2.461844    5.032962   -1.083171
     22          1           0        2.631222    3.118873    0.444594
     23          1           0        2.926899    1.149018    0.807130
     24          6           0        2.321082   -0.748466    1.523280
     25          1           0        2.897970    0.938231    3.512731
     26          1           0        2.364299    2.459592    2.774600
     27          1           0        0.622144    0.233587    3.927045
     28          1           0        0.425153    1.985655    4.114823
     29          1           0       -0.877302    2.057080    2.124491
     30          8           0        2.991589   -1.199429    0.460752
     31          8           0        1.925720   -1.449675    2.434854
     32          6           0        3.227689   -2.638382    0.403363
     33          6           0        3.784451   -2.949606   -0.967748
     34          1           0        3.926318   -2.891666    1.212647
     35          1           0        2.275625   -3.145863    0.589466
     36          1           0        3.986604   -4.027816   -1.037601
     37          1           0        3.062722   -2.676957   -1.747428
     38          1           0        4.722029   -2.405845   -1.147590
     39          6           0       -2.292697   -0.237931    1.416201
     40          6           0       -2.843972   -1.525973    1.355405
     41          6           0       -3.111483    0.869095    1.151993
     42          6           0       -4.186298   -1.708129    1.023461
     43          1           0       -2.205668   -2.390162    1.542310
     44          6           0       -4.455213    0.688794    0.825215
     45          1           0       -2.704559    1.878457    1.189382
     46          6           0       -4.993787   -0.599764    0.756588
     47          1           0       -4.598944   -2.715418    0.965456
     48          1           0       -5.082995    1.555359    0.616088
     49          1           0       -6.042681   -0.738764    0.492046
     50          1           0       -0.446562   -0.982049    2.222680
 ---------------------------------------------------------------------

 SCF Done:  E(UB3LYP) =  -3684.01517958     A.U. after    2 cycles

 Isotropic polarizability for W=    0.000000      325.14 Bohr**3.
 End of Minotr F.D. properties file   721 does not exist.

                      1                      2                      3
                      A                      A                      A
 Frequencies --     22.1621                33.8287                43.2078
 Red. masses --      5.8223                 5.0571                 4.4573
 Frc consts  --      0.0017                 0.0034                 0.0049
 IR Inten    --      0.1477                 0.0444                 0.3877

                      4                      5                      6
                      A                      A                      A
 Frequencies --     44.4612                46.3023                59.7704
 Red. masses --      6.3326                 8.3133                 6.2209
 Frc consts  --      0.0074                 0.0105                 0.0131
 IR Inten    --      0.2006                 0.3609                 0.4512

                      7                      8                      9
                      A                      A                      A
 Frequencies --     62.5256                65.9055                76.9414
 Red. masses --      5.7636                 8.5974                 5.2109
 Frc consts  --      0.0133                 0.0220                 0.0182
 IR Inten    --      0.2809                 1.0266                 0.0148

                     10                     11                     12
                      A                      A                      A
 Frequencies --     80.6478                88.5012                95.6045
 Red. masses --      7.1523                 9.9582                 6.1866
 Frc consts  --      0.0274                 0.0460                 0.0333
 IR Inten    --      0.6847                 0.5061                 0.8399

                     13                     14                     15
                      A                      A                      A
 Frequencies --    105.5760               112.3278               117.4179
 Red. masses --      8.2727                 9.6450                28.5465
 Frc consts  --      0.0543                 0.0717                 0.2319
 IR Inten    --      5.3983                 1.0141                 1.8793

                     16                     17                     18
                      A                      A                      A
 Frequencies --    135.6901               144.0234               156.4282
 Red. masses --      4.2587                 3.7122                 3.9683
 Frc consts  --      0.0462                 0.0454                 0.0572
 IR Inten    --      1.6434                 1.2380                 2.0732

                     19                     20                     21
                      A                      A                      A
 Frequencies --    165.8806               191.6357               202.9594
 Red. masses --      2.3116                 3.1103                 5.4224
 Frc consts  --      0.0375                 0.0673                 0.1316
 IR Inten    --      5.0118                 2.2126                10.5072

                     22                     23                     24
                      A                      A                      A
 Frequencies --    217.4506               230.1683               257.4023
 Red. masses --      5.3158                 3.5795                 2.0483
 Frc consts  --      0.1481                 0.1117                 0.0800
 IR Inten    --      1.8706                 0.5360                 0.5328

                     25                     26                     27
                      A                      A                      A
 Frequencies --    271.0804               279.1119               313.1003
 Red. masses --      2.9600                 2.8382                 5.0547
 Frc consts  --      0.1282                 0.1303                 0.2920
 IR Inten    --      2.8258                 1.0183                 0.7104

                     28                     29                     30
                      A                      A                      A
 Frequencies --    321.5076               346.4801               352.6691
 Red. masses --      6.2672                 9.4915                10.2120
 Frc consts  --      0.3817                 0.6713                 0.7483
 IR Inten    --      0.6779                 3.5513                39.0082

                     31                     32                     33
                      A                      A                      A
 Frequencies --    393.8605               403.6204               409.3744
 Red. masses --      4.2567                12.7918                 3.1938
 Frc consts  --      0.3891                 1.2278                 0.3154
 IR Inten    --      5.0287                68.9178                10.1171

                     34                     35                     36
                      A                      A                      A
 Frequencies --    413.8554               417.9457               420.7599
 Red. masses --      3.2300                 6.1375                 5.1056
 Frc consts  --      0.3260                 0.6317                 0.5326
 IR Inten    --      0.9889                32.2445                37.5195

                     37                     38                     39
                      A                      A                      A
 Frequencies --    422.6088               466.2897               518.6749
 Red. masses --      4.0410                 4.4903                 3.5013
 Frc consts  --      0.4252                 0.5752                 0.5550
 IR Inten    --      3.2334                 7.0040                 6.0992

                     40                     41                     42
                      A                      A                      A
 Frequencies --    554.1574               604.2209               628.4654
 Red. masses --      4.5749                 2.8043                 5.6941
 Frc consts  --      0.8278                 0.6032                 1.3251
 IR Inten    --      5.6896                 4.5711                 5.1908

                     43                     44                     45
                      A                      A                      A
 Frequencies --    631.4889               633.2098               672.9959
 Red. masses --      6.3615                 4.9308                 4.7315
 Frc consts  --      1.4947                 1.1648                 1.2626
 IR Inten    --      0.3891                12.8965                 5.8667

                     46                     47                     48
                      A                      A                      A
 Frequencies --    697.7247               700.5620               707.7587
 Red. masses --      1.7620                 4.3551                 1.5861
 Frc consts  --      0.5054                 1.2593                 0.4681
 IR Inten    --     43.8892                25.1484                18.0979

                     49                     50                     51
                      A                      A                      A
 Frequencies --    743.3958               752.3238               763.8294
 Red. masses --      3.0622                 3.5273                 5.5992
 Frc consts  --      0.9971                 1.1763                 1.9247
 IR Inten    --    127.3705                 8.8883                37.9278

                     52                     53                     54
                      A                      A                      A
 Frequencies --    765.0207               808.2200               809.9866
 Red. masses --      2.4629                 3.0381                 1.1460
 Frc consts  --      0.8492                 1.1693                 0.4430
 IR Inten    --     43.6854                35.8170                 8.4672

                     55                     56                     57
                      A                      A                      A
 Frequencies --    831.2068               837.7461               843.3532
 Red. masses --      2.8781                 1.2834                 2.7036
 Frc consts  --      1.1716                 0.5307                 1.1329
 IR Inten    --     44.6674                 0.8852                11.2166

                     58                     59                     60
                      A                      A                      A
 Frequencies --    846.0251               865.6042               889.2805
 Red. masses --      1.3817                 2.8991                 4.0125
 Frc consts  --      0.5827                 1.2798                 1.8696
 IR Inten    --      3.0629                29.7198                30.5284

                     61                     62                     63
                      A                      A                      A
 Frequencies --    905.7621               922.8909               924.6988
 Red. masses --      2.5706                 1.5834                 2.5105
 Frc consts  --      1.2426                 0.7946                 1.2648
 IR Inten    --      1.9884                 8.0441                 6.9678

                     64                     65                     66
                      A                      A                      A
 Frequencies --    933.2691               963.7067               977.1935
 Red. masses --      1.4604                 3.2681                 1.3895
 Frc consts  --      0.7494                 1.7883                 0.7818
 IR Inten    --      0.6278                14.8903                 0.2632

                     67                     68                     69
                      A                      A                      A
 Frequencies --    982.9788               987.5700               997.6525
 Red. masses --      1.3985                 3.8368                 2.3701
 Frc consts  --      0.7962                 2.2047                 1.3899
 IR Inten    --      1.7351                48.4111                 5.1869

                     70                     71                     72
                      A                      A                      A
 Frequencies --    999.3140              1003.5433              1012.5119
 Red. masses --      1.3613                 1.5201                 5.1752
 Frc consts  --      0.8010                 0.9020                 3.1259
 IR Inten    --      0.0888                 1.9425                 2.0951

                     73                     74                     75
                      A                      A                      A
 Frequencies --   1013.1752              1019.4263              1048.4828
 Red. masses --      3.9232                 2.4909                 2.6874
 Frc consts  --      2.3728                 1.5252                 1.7407
 IR Inten    --      0.7213                22.8630                29.8443

                     76                     77                     78
                      A                      A                      A
 Frequencies --   1052.8166              1056.7067              1081.0224
 Red. masses --      2.1212                 2.0732                 2.6168
 Frc consts  --      1.3853                 1.3639                 1.8017
 IR Inten    --      0.9798                 3.0082                16.0215

                     79                     80                     81
                      A                      A                      A
 Frequencies --   1090.1954              1108.4314              1122.5866
 Red. masses --      1.8473                 1.7793                 1.8666
 Frc consts  --      1.2936                 1.2880                 1.3859
 IR Inten    --      2.9386                 2.5031                 4.2947

                     82                     83                     84
                      A                      A                      A
 Frequencies --   1134.9686              1137.0763              1171.6217
 Red. masses --      2.2228                 2.3427                 1.5530
 Frc consts  --      1.6870                 1.7847                 1.2560
 IR Inten    --     11.7928                 5.5195                 7.0418

                     85                     86                     87
                      A                      A                      A
 Frequencies --   1175.1054              1176.7190              1178.5766
 Red. masses --      1.1792                 1.0863                 1.2330
 Frc consts  --      0.9594                 0.8862                 1.0091
 IR Inten    --      7.1232                 0.5418                10.4132

                     88                     89                     90
                      A                      A                      A
 Frequencies --   1187.0323              1202.6032              1205.8417
 Red. masses --      1.7798                 1.1303                 1.2102
 Frc consts  --      1.4776                 0.9631                 1.0368
 IR Inten    --     18.6790                 1.2559                 7.3909

                     91                     92                     93
                      A                      A                      A
 Frequencies --   1219.8695              1227.2975              1236.0333
 Red. masses --      1.3218                 2.5408                 1.7696
 Frc consts  --      1.1589                 2.2549                 1.5929
 IR Inten    --      1.7113               220.7570                39.7195

                     94                     95                     96
                      A                      A                      A
 Frequencies --   1254.3773              1272.7686              1290.6964
 Red. masses --      1.7013                 1.3152                 1.1197
 Frc consts  --      1.5772                 1.2553                 1.0990
 IR Inten    --     34.0067                 8.5398                 1.2276

                     97                     98                     99
                      A                      A                      A
 Frequencies --   1305.4856              1313.7220              1322.7199
 Red. masses --      1.8831                 1.5078                 1.5514
 Frc consts  --      1.8909                 1.5332                 1.5993
 IR Inten    --     39.0320                12.3099                 6.4881

                    100                    101                    102
                      A                      A                      A
 Frequencies --   1334.3152              1339.1312              1350.5233
 Red. masses --      1.5499                 1.7273                 1.6160
 Frc consts  --      1.6258                 1.8250                 1.7366
 IR Inten    --     18.1667                 1.9957                12.1604

                    103                    104                    105
                      A                      A                      A
 Frequencies --   1361.9968              1367.0274              1370.4675
 Red. masses --      2.2389                 3.8782                 1.4979
 Frc consts  --      2.4470                 4.2701                 1.6576
 IR Inten    --     16.3659                 1.4358                34.3942

                    106                    107                    108
                      A                      A                      A
 Frequencies --   1395.8497              1417.7649              1422.1686
 Red. masses --      1.5465                 1.7563                 1.5814
 Frc consts  --      1.7753                 2.0799                 1.8845
 IR Inten    --     89.4492                18.7697                11.8829

                    109                    110                    111
                      A                      A                      A
 Frequencies --   1472.7446              1473.6540              1477.5850
 Red. masses --      2.0586                 1.0387                 1.1902
 Frc consts  --      2.6308                 1.3290                 1.5310
 IR Inten    --      4.6076                 2.6388                12.0471

                    112                    113                    114
                      A                      A                      A
 Frequencies --   1485.1315              1486.1275              1493.1625
 Red. masses --      2.0728                 1.0546                 1.1132
 Frc consts  --      2.6936                 1.3723                 1.4623
 IR Inten    --      6.1813                 0.5690                13.1512

                    115                    116                    117
                      A                      A                      A
 Frequencies --   1505.0672              1527.2642              1528.4138
 Red. masses --      1.0865                 2.2922                 2.3758
 Frc consts  --      1.4501                 3.1501                 3.2700
 IR Inten    --     10.7734                 3.5063                 1.5396

                    118                    119                    120
                      A                      A                      A
 Frequencies --   1629.6757              1632.1454              1651.5935
 Red. masses --      5.7438                 5.7283                 5.8317
 Frc consts  --      8.9878                 8.9906                 9.3724
 IR Inten    --      0.4274                 0.5747                 0.3503

                    121                    122                    123
                      A                      A                      A
 Frequencies --   1653.3006              1761.5742              3042.2186
 Red. masses --      5.8571                10.7665                 1.0359
 Frc consts  --      9.4327                19.6847                 5.6486
 IR Inten    --      3.4568               177.7560                20.0436

                    124                    125                    126
                      A                      A                      A
 Frequencies --   3054.3147              3063.8429              3075.9409
 Red. masses --      1.0652                 1.0645                 1.0619
 Frc consts  --      5.8550                 5.8874                 5.9198
 IR Inten    --     22.4164                29.6963                31.1672

                    127                    128                    129
                      A                      A                      A
 Frequencies --   3113.0581              3113.7306              3122.3040
 Red. masses --      1.1024                 1.1007                 1.0880
 Frc consts  --      6.2944                 6.2874                 6.2495
 IR Inten    --     12.3215                15.8968                 3.7557

                    130                    131                    132
                      A                      A                      A
 Frequencies --   3127.5804              3132.0218              3135.5931
 Red. masses --      1.1009                 1.0992                 1.0856
 Frc consts  --      6.3446                 6.3531                 6.2888
 IR Inten    --      5.7156                 5.9338                 3.9934

                    133                    134                    135
                      A                      A                      A
 Frequencies --   3141.2776              3146.4087              3172.7850
 Red. masses --      1.0918                 1.1044                 1.0851
 Frc consts  --      6.3476                 6.4417                 6.4356
 IR Inten    --     13.2589                16.1181                 0.2234

                    136                    137                    138
                      A                      A                      A
 Frequencies --   3173.1723              3180.8936              3184.1806
 Red. masses --      1.0853                 1.0883                 1.0898
 Frc consts  --      6.4383                 6.4878                 6.5102
 IR Inten    --      0.1613                 0.9715                 6.3133

                    139                    140                    141
                      A                      A                      A
 Frequencies --   3188.2317              3195.3492              3197.3650
 Red. masses --      1.0920                 1.0942                 1.0946
 Frc consts  --      6.5398                 6.5824                 6.5930
 IR Inten    --     11.2094                20.3805                14.4437

                    142                    143                    144
                      A                      A                      A
 Frequencies --   3202.6696              3203.8021              3220.4696
 Red. masses --      1.0985                 1.0953                 1.0923
 Frc consts  --      6.6384                 6.6238                 6.6749
 IR Inten    --      4.8044                 9.0912                 2.4234

 - Thermochemistry -
 -------------------
 Temperature   298.150 Kelvin.  Pressure   1.00000 Atm.
 Atom     1 has atomic number  6 and mass  12.00000

 Molecular mass:   482.99839 amu.
 Principal axes and moments of inertia in atomic units:
                           1         2         3
     Eigenvalues --  ******************************
           X            0.99871  -0.05054  -0.00542
           Y            0.05043   0.99856  -0.01828
           Z            0.00634   0.01799   0.99982
 This molecule is an asymmetric top.
 Rotational symmetry number  1.
 Warning -- assumption of classical behavior for rotation
           may cause significant error
 Rotational temperatures (Kelvin)      0.00768     0.00684     0.00589
 Rotational constants (GHZ):           0.16000     0.14245     0.12272
 Zero-point vibrational energy    1020622.0 (Joules/Mol)
                                  243.93452 (Kcal/Mol)
 Warning -- explicit consideration of  41 degrees of freedom as
           vibrations may cause significant error
 Vibrational temperatures:     31.89    48.67    62.17    63.97    66.62
          (Kelvin)             86.00    89.96    94.82   110.70   116.03
                              127.33   137.55   151.90   161.61   168.94
                              195.23   207.22   225.07   238.67   275.72
                              292.01   312.86   331.16   370.34   390.02
                              401.58   450.48   462.58   498.51   507.41
                              566.68   580.72   589.00   595.45   601.33
                              605.38   608.04   670.89   746.26   797.31
                              869.34   904.22   908.57   911.05   968.29
                             1003.87  1007.95  1018.31  1069.58  1082.43
                             1098.98  1100.69  1162.85  1165.39  1195.92
                             1205.33  1213.40  1217.24  1245.41  1279.48
                             1303.19  1327.83  1330.44  1342.77  1386.56
                             1405.96  1414.29  1420.89  1435.40  1437.79
                             1443.87  1456.78  1457.73  1466.73  1508.53
                             1514.77  1520.37  1555.35  1568.55  1594.79
                             1615.15  1632.97  1636.00  1685.70  1690.71
                             1693.04  1695.71  1707.87  1730.28  1734.94
                             1755.12  1765.81  1778.38  1804.77  1831.23
                             1857.02  1878.30  1890.15  1903.10  1919.78
                             1926.71  1943.10  1959.61  1966.85  1971.80
                             2008.32  2039.85  2046.18  2118.95  2120.26
                             2125.92  2136.77  2138.21  2148.33  2165.46
                             2197.39  2199.05  2344.74  2348.29  2376.27
                             2378.73  2534.51  4377.07  4394.48  4408.19
                             4425.59  4479.00  4479.96  4492.30  4499.89
                             4506.28  4511.42  4519.60  4526.98  4564.93
                             4565.49  4576.60  4581.33  4587.15  4597.39
                             4600.30  4607.93  4609.56  4633.54

 Zero-point correction=                           0.388734 (Hartree/Particle)
 Thermal correction to Energy=                    0.417007
 Thermal correction to Enthalpy=                  0.417952
 Thermal correction to Gibbs Free Energy=         0.325645
 Sum of electronic and zero-point Energies=          -3683.626445
 Sum of electronic and thermal Energies=             -3683.598172
 Sum of electronic and thermal Enthalpies=           -3683.597228
 Sum of electronic and thermal Free Energies=        -3683.689535

                     E (Thermal)             CV                S
                      KCal/Mol        Cal/Mol-Kelvin    Cal/Mol-Kelvin
 Total                  261.676            103.837            194.276
 Electronic               0.000              0.000              3.561
 Translational            0.889              2.981             44.412
 Rotational               0.889              2.981             35.995
 Vibrational            259.899             97.875            110.308
 Vibration     1          0.593              1.985              6.430
 Vibration     2          0.594              1.983              5.591
 Vibration     3          0.595              1.980              5.106
 Vibration     4          0.595              1.980              5.050
 Vibration     5          0.595              1.979              4.969
 Vibration     6          0.597              1.973              4.465
 Vibration     7          0.597              1.972              4.376
 Vibration     8          0.597              1.971              4.272
 Vibration     9          0.599              1.965              3.967
 Vibration    10          0.600              1.962              3.875
 Vibration    11          0.601              1.957              3.693
 Vibration    12          0.603              1.952              3.542
 Vibration    13          0.605              1.945              3.349
 Vibration    14          0.607              1.939              3.228
 Vibration    15          0.608              1.935              3.142
 Vibration    16          0.614              1.918              2.864
 Vibration    17          0.616              1.909              2.750
 Vibration    18          0.620              1.895              2.593
 Vibration    19          0.624              1.884              2.482
 Vibration    20          0.634              1.851              2.212
 Vibration    21          0.639              1.836              2.106
 Vibration    22          0.646              1.814              1.980
 Vibration    23          0.652              1.795              1.878
 Vibration    24          0.667              1.750              1.679
 Vibration    25          0.675              1.727              1.589
 Vibration    26          0.679              1.712              1.539
 Vibration    27          0.701              1.649              1.346
 Vibration    28          0.707              1.632              1.302
 Vibration    29          0.724              1.582              1.182
 Vibration    30          0.729              1.570              1.154
 Vibration    31          0.761              1.483              0.985
 Vibration    32          0.769              1.462              0.949
 Vibration    33          0.774              1.450              0.929
 Vibration    34          0.777              1.440              0.913
 Vibration    35          0.781              1.431              0.899
 Vibration    36          0.783              1.425              0.889
 Vibration    37          0.785              1.421              0.883
 Vibration    38          0.824              1.325              0.748
 Vibration    39          0.874              1.209              0.613
 Vibration    40          0.910              1.131              0.536
 Vibration    41          0.963              1.023              0.442

 Optimization completed.
    -- Stationary point found.
 Normal termination of Gaussian 16 at Mon Jun  7 06:17:51 2021.
