 Gaussian 16, Revision A.03,
 Gaussian 16:  ES64L-G16RevA.03 25-Dec-2016

 ----------------------------------------------------------------------
 #p b3lyp jul-cc-pvdz empiricaldispersion=gd3bj opt freq=noraman pop=no
 ne
 ----------------------------------------------------------------------

 -----
 title
 -----
 Symbolic Z-matrix:
 Charge =  0 Multiplicity = 6

 SCF Done:  E(UB3LYP) =  -3684.01377545     A.U. after   23 cycles
 Optimization completed.
    -- Stationary point found.
 Normal termination of Gaussian 16 at Fri Jun  4 18:16:50 2021.

 ----------------------------------------------------------------------
 #P Geom=AllCheck Guess=TCheck SCRF=Check GenChk UB3LYP/Jul-CC-pVDZ Fre
 q
 ----------------------------------------------------------------------

 Structure from the checkpoint file:  "/scratch/kwaneu.2863322.bmbhpcps002/Gau-14043.chk"
 -----
 title
 -----
 Charge =  0 Multiplicity = 6

                         Standard orientation:
 ---------------------------------------------------------------------
 Center     Atomic      Atomic             Coordinates (Angstroms)
 Number     Number       Type             X           Y           Z
 ---------------------------------------------------------------------
      1          6           0        1.434512    3.025978    0.154645
      2          6           0        0.961923    1.757506   -0.207256
      3          6           0        1.047409    1.348240   -1.541879
      4          6           0        1.596616    2.200578   -2.502256
      5          6           0        2.070863    3.464004   -2.138568
      6          6           0        1.989667    3.874077   -0.804930
      7          6           0        0.426025    0.858728    0.871864
      8          6           0        1.488142    0.221036    1.810004
      9          6           0        1.330755    0.990915    3.127366
     10          6           0       -0.191081    1.194224    3.255559
     11          6           0       -0.667379    1.427209    1.810595
     12          6           0       -1.655161    0.414233    1.195762
     13          8           0       -0.553990   -0.138231    0.327043
     14         26           0       -0.515631   -2.068493   -0.301059
     15         17           0        0.272562   -2.154819   -2.341269
     16         17           0       -2.647091   -2.549734   -0.177741
     17         17           0        0.643757   -3.208855    1.174424
     18          1           0        0.690691    0.365924   -1.837361
     19          1           0        1.653307    1.870592   -3.540100
     20          1           0        2.500307    4.127086   -2.890401
     21          1           0        2.357390    4.856785   -0.508784
     22          1           0        1.378560    3.356899    1.191604
     23          1           0        1.200968   -0.827831    1.954223
     24          6           0        2.879857    0.230158    1.218298
     25          1           0        1.766446    0.444929    3.972275
     26          1           0        1.858431    1.951285    3.057885
     27          1           0       -0.658547    0.288810    3.668678
     28          1           0       -0.451425    2.027398    3.918875
     29          1           0       -0.934729    2.465811    1.600499
     30          8           0        2.924180   -0.575303    0.145462
     31          8           0        3.813917    0.881615    1.632961
     32          6           0        4.162958   -0.580087   -0.613149
     33          6           0        3.968514   -1.514185   -1.787390
     34          1           0        4.369997    0.451865   -0.926993
     35          1           0        4.972254   -0.904480    0.054065
     36          1           0        4.896994   -1.558809   -2.374184
     37          1           0        3.719352   -2.527004   -1.444698
     38          1           0        3.156764   -1.164273   -2.437212
     39          6           0       -2.808332    0.921035    0.395134
     40          6           0       -2.613321    1.788190   -0.690026
     41          6           0       -4.107984    0.544224    0.751082
     42          6           0       -3.708876    2.269528   -1.405552
     43          1           0       -1.605119    2.072414   -0.988689
     44          6           0       -5.206464    1.038548    0.043949
     45          1           0       -4.259415   -0.155010    1.574302
     46          6           0       -5.007934    1.900113   -1.037285
     47          1           0       -3.549759    2.933867   -2.255595
     48          1           0       -6.214903    0.735754    0.327086
     49          1           0       -5.862848    2.277807   -1.599516
     50          1           0       -1.972299   -0.371226    1.890026
 ---------------------------------------------------------------------

 SCF Done:  E(UB3LYP) =  -3684.01377545     A.U. after    2 cycles

 Isotropic polarizability for W=    0.000000      327.17 Bohr**3.
 End of Minotr F.D. properties file   721 does not exist.

                      1                      2                      3
                      A                      A                      A
 Frequencies --     12.2007                18.1773                25.1733
 Red. masses --     15.4280                 3.7352                 4.5594
 Frc consts  --      0.0014                 0.0007                 0.0017
 IR Inten    --      0.0806                 0.7114                 0.0131

                      4                      5                      6
                      A                      A                      A
 Frequencies --     32.8561                44.7963                46.0631
 Red. masses --      3.9181                 3.7207                 4.9107
 Frc consts  --      0.0025                 0.0044                 0.0061
 IR Inten    --      0.3212                 0.1062                 0.2592

                      7                      8                      9
                      A                      A                      A
 Frequencies --     48.9535                56.5445                70.8523
 Red. masses --      5.2579                 5.3269                 6.0473
 Frc consts  --      0.0074                 0.0100                 0.0179
 IR Inten    --      0.3754                 0.0822                 1.0925

                     10                     11                     12
                      A                      A                      A
 Frequencies --     79.0704                87.5518                90.0209
 Red. masses --      4.1663                19.8423                16.7075
 Frc consts  --      0.0153                 0.0896                 0.0798
 IR Inten    --      1.9501                 0.2605                 0.0890

                     13                     14                     15
                      A                      A                      A
 Frequencies --     97.6808               107.8946               116.7708
 Red. masses --      6.1290                11.7620                11.1293
 Frc consts  --      0.0345                 0.0807                 0.0894
 IR Inten    --      1.5439                 1.5059                 1.4832

                     16                     17                     18
                      A                      A                      A
 Frequencies --    122.4013               129.7268               135.5012
 Red. masses --      4.9667                10.6156                 3.9221
 Frc consts  --      0.0438                 0.1053                 0.0424
 IR Inten    --      0.8320                 6.8749                 0.5639

                     19                     20                     21
                      A                      A                      A
 Frequencies --    173.2047               177.0613               202.5099
 Red. masses --      4.9110                 2.3943                 4.0031
 Frc consts  --      0.0868                 0.0442                 0.0967
 IR Inten    --      1.6157                 4.2164                 4.4725

                     22                     23                     24
                      A                      A                      A
 Frequencies --    211.7073               232.4230               250.0969
 Red. masses --      6.4183                 2.7533                 4.8077
 Frc consts  --      0.1695                 0.0876                 0.1772
 IR Inten    --      8.8194                 0.5152                 2.9868

                     25                     26                     27
                      A                      A                      A
 Frequencies --    259.5383               279.0811               303.8865
 Red. masses --      1.6253                 5.1411                 4.2885
 Frc consts  --      0.0645                 0.2359                 0.2333
 IR Inten    --      1.2064                 4.5777                 3.0215

                     28                     29                     30
                      A                      A                      A
 Frequencies --    331.1068               352.1407               367.8909
 Red. masses --      4.7311                31.3492                 4.7668
 Frc consts  --      0.3056                 2.2904                 0.3801
 IR Inten    --      2.7761                26.9007                 5.6790

                     31                     32                     33
                      A                      A                      A
 Frequencies --    388.1457               400.7279               405.7928
 Red. masses --      4.1732                 3.8059                 2.9685
 Frc consts  --      0.3704                 0.3601                 0.2880
 IR Inten    --      9.7199                11.8883                 0.5421

                     34                     35                     36
                      A                      A                      A
 Frequencies --    408.3855               410.0240               417.0252
 Red. masses --      7.1875                 4.1754                31.0783
 Frc consts  --      0.7063                 0.4136                 3.1844
 IR Inten    --     46.7960                27.4550                78.3077

                     37                     38                     39
                      A                      A                      A
 Frequencies --    435.0544               467.7684               531.2659
 Red. masses --      4.4352                 4.8124                 3.6464
 Frc consts  --      0.4946                 0.6204                 0.6064
 IR Inten    --      7.8065                 0.5072                 1.5505

                     40                     41                     42
                      A                      A                      A
 Frequencies --    549.8346               564.5677               629.5645
 Red. masses --      3.4816                 2.8165                 6.3346
 Frc consts  --      0.6202                 0.5289                 1.4793
 IR Inten    --      9.7968                 6.3753                 1.1469

                     43                     44                     45
                      A                      A                      A
 Frequencies --    630.4035               633.7707               652.4707
 Red. masses --      6.2580                 5.8306                 3.6517
 Frc consts  --      1.4653                 1.3798                 0.9159
 IR Inten    --      0.6390                14.5363                18.7018

                     46                     47                     48
                      A                      A                      A
 Frequencies --    671.5855               702.5986               706.8406
 Red. masses --      5.3687                 1.5569                 1.6156
 Frc consts  --      1.4267                 0.4528                 0.4756
 IR Inten    --     12.4019                48.9596                37.8749

                     49                     50                     51
                      A                      A                      A
 Frequencies --    745.0777               761.1533               768.1168
 Red. masses --      3.6954                 2.8419                 2.5549
 Frc consts  --      1.2087                 0.9701                 0.8881
 IR Inten    --     51.4895                11.0715                15.0003

                     52                     53                     54
                      A                      A                      A
 Frequencies --    786.5694               807.1386               818.4668
 Red. masses --      2.9250                 1.1629                 5.4152
 Frc consts  --      1.0662                 0.4464                 2.1373
 IR Inten    --     28.9316                 0.5000                54.0189

                     55                     56                     57
                      A                      A                      A
 Frequencies --    830.7147               842.3639               847.1908
 Red. masses --      3.2139                 1.2918                 2.4326
 Frc consts  --      1.3067                 0.5401                 1.0287
 IR Inten    --     39.6453                 5.6581                71.1513

                     58                     59                     60
                      A                      A                      A
 Frequencies --    848.6591               859.1936               877.4659
 Red. masses --      1.5632                 2.6486                 2.5814
 Frc consts  --      0.6633                 1.1520                 1.1710
 IR Inten    --     26.0568                27.7612                28.1182

                     61                     62                     63
                      A                      A                      A
 Frequencies --    923.7096               924.1760               940.0490
 Red. masses --      1.5792                 1.5722                 2.3965
 Frc consts  --      0.7939                 0.7912                 1.2478
 IR Inten    --     16.4782                14.4303                14.5343

                     64                     65                     66
                      A                      A                      A
 Frequencies --    948.4725               963.4811               979.7147
 Red. masses --      2.5228                 2.8309                 1.3877
 Frc consts  --      1.3372                 1.5483                 0.7848
 IR Inten    --     43.3370                 3.9320                 0.4456

                     67                     68                     69
                      A                      A                      A
 Frequencies --    982.4716               985.8637               999.3974
 Red. masses --      1.3727                 2.3809                 1.3683
 Frc consts  --      0.7807                 1.3634                 0.8052
 IR Inten    --      0.1992                 2.0689                 0.4048

                     70                     71                     72
                      A                      A                      A
 Frequencies --   1000.9755              1002.8350              1010.3109
 Red. masses --      1.3844                 2.9856                 5.7430
 Frc consts  --      0.8173                 1.7690                 3.4538
 IR Inten    --      0.3451                 3.1421                 0.1639

                     73                     74                     75
                      A                      A                      A
 Frequencies --   1015.9475              1034.7262              1051.1324
 Red. masses --      5.3505                 2.8727                 2.1502
 Frc consts  --      3.2538                 1.8122                 1.3997
 IR Inten    --      0.7278                23.4092                 4.3730

                     76                     77                     78
                      A                      A                      A
 Frequencies --   1053.3370              1059.7801              1084.2001
 Red. masses --      2.2442                 2.3092                 2.3647
 Frc consts  --      1.4670                 1.5281                 1.6377
 IR Inten    --     12.1775                18.5575                 0.9237

                     79                     80                     81
                      A                      A                      A
 Frequencies --   1105.3332              1109.5349              1124.4967
 Red. masses --      1.6807                 1.7137                 2.1719
 Frc consts  --      1.2098                 1.2430                 1.6181
 IR Inten    --      7.4971                 0.3813                 3.2182

                     82                     83                     84
                      A                      A                      A
 Frequencies --   1127.9554              1138.2450              1169.7274
 Red. masses --      2.9846                 2.3537                 1.5656
 Frc consts  --      2.2373                 1.7967                 1.2621
 IR Inten    --     19.7674                17.9098                 4.1882

                     85                     86                     87
                      A                      A                      A
 Frequencies --   1173.2422              1175.0471              1175.2917
 Red. masses --      1.7196                 1.0912                 1.1144
 Frc consts  --      1.3946                 0.8877                 0.9070
 IR Inten    --     17.3891                 1.1069                 1.7429

                     88                     89                     90
                      A                      A                      A
 Frequencies --   1187.1574              1201.2252              1206.5124
 Red. masses --      1.4628                 1.1264                 1.1557
 Frc consts  --      1.2146                 0.9576                 0.9912
 IR Inten    --      5.1571                 2.8235                 2.9085

                     91                     92                     93
                      A                      A                      A
 Frequencies --   1213.2035              1226.1974              1234.8366
 Red. masses --      1.6238                 1.7810                 2.1983
 Frc consts  --      1.4081                 1.5778                 1.9750
 IR Inten    --     25.9516                68.1996                92.5537

                     94                     95                     96
                      A                      A                      A
 Frequencies --   1258.8307              1273.5316              1285.4360
 Red. masses --      1.3979                 1.8144                 1.1006
 Frc consts  --      1.3051                 1.7338                 1.0715
 IR Inten    --      8.6885                15.7598                 0.1599

                     97                     98                     99
                      A                      A                      A
 Frequencies --   1307.6595              1309.5632              1322.3669
 Red. masses --      1.4590                 1.6686                 1.5232
 Frc consts  --      1.4700                 1.6860                 1.5693
 IR Inten    --     29.5643                23.4420                13.8769

                    100                    101                    102
                      A                      A                      A
 Frequencies --   1329.9629              1341.9642              1351.4120
 Red. masses --      1.6120                 1.9872                 1.4401
 Frc consts  --      1.6799                 2.1085                 1.5496
 IR Inten    --     40.8646                 0.1627                 2.6669

                    103                    104                    105
                      A                      A                      A
 Frequencies --   1362.4472              1364.2454              1369.4763
 Red. masses --      2.5082                 3.3776                 1.4082
 Frc consts  --      2.7432                 3.7037                 1.5560
 IR Inten    --      0.1012                 1.5733                20.1336

                    106                    107                    108
                      A                      A                      A
 Frequencies --   1392.8231              1399.5002              1421.5962
 Red. masses --      1.6361                 1.8122                 1.5619
 Frc consts  --      1.8701                 2.0913                 1.8597
 IR Inten    --     56.8616                17.1970                 3.1982

                    109                    110                    111
                      A                      A                      A
 Frequencies --   1473.6221              1474.4515              1482.7061
 Red. masses --      2.3170                 1.0402                 1.9524
 Frc consts  --      2.9645                 1.3323                 2.5289
 IR Inten    --     10.2438                 5.6374                15.6998

                    112                    113                    114
                      A                      A                      A
 Frequencies --   1483.1203              1487.6682              1501.2658
 Red. masses --      1.0780                 1.1378                 1.1064
 Frc consts  --      1.3970                 1.4836                 1.4692
 IR Inten    --      3.7135                 2.5419                 5.4946

                    115                    116                    117
                      A                      A                      A
 Frequencies --   1506.8343              1526.6834              1527.9871
 Red. masses --      1.0887                 2.3651                 2.3091
 Frc consts  --      1.4565                 3.2478                 3.1764
 IR Inten    --      8.4745                 2.2557                 5.4269

                    118                    119                    120
                      A                      A                      A
 Frequencies --   1630.7061              1633.2681              1653.4585
 Red. masses --      5.8515                 5.8126                 5.8066
 Frc consts  --      9.1679                 9.1356                 9.3532
 IR Inten    --      0.2091                 0.6114                 1.9512

                    121                    122                    123
                      A                      A                      A
 Frequencies --   1654.1791              1782.5385              3044.1077
 Red. masses --      5.7399                12.1295                 1.0358
 Frc consts  --      9.2538                22.7075                 5.6553
 IR Inten    --      0.6192               257.1824                13.0575

                    124                    125                    126
                      A                      A                      A
 Frequencies --   3047.5908              3059.5331              3066.4400
 Red. masses --      1.0660                 1.0581                 1.0662
 Frc consts  --      5.8331                 5.8354                 5.9069
 IR Inten    --     21.3810                17.6982                18.0686

                    127                    128                    129
                      A                      A                      A
 Frequencies --   3077.9109              3103.8629              3105.4074
 Red. masses --      1.0796                 1.0893                 1.0971
 Frc consts  --      6.0259                 6.1833                 6.2333
 IR Inten    --      7.6617                12.8458                15.8833

                    130                    131                    132
                      A                      A                      A
 Frequencies --   3106.1597              3121.1052              3121.5828
 Red. masses --      1.1078                 1.1009                 1.1038
 Frc consts  --      6.2972                 6.3185                 6.3372
 IR Inten    --      6.6964                25.2685                10.5647

                    133                    134                    135
                      A                      A                      A
 Frequencies --   3131.0736              3137.6409              3170.6900
 Red. masses --      1.0901                 1.1045                 1.0850
 Frc consts  --      6.2967                 6.4064                 6.4264
 IR Inten    --     14.0128                24.5282                 0.7178

                    136                    137                    138
                      A                      A                      A
 Frequencies --   3171.4929              3177.9370              3179.4331
 Red. masses --      1.0851                 1.0886                 1.0887
 Frc consts  --      6.4305                 6.4774                 6.4844
 IR Inten    --      0.4214                 3.3353                 4.5508

                    139                    140                    141
                      A                      A                      A
 Frequencies --   3186.7201              3188.6955              3195.8870
 Red. masses --      1.0920                 1.0936                 1.0949
 Frc consts  --      6.5336                 6.5512                 6.5886
 IR Inten    --     12.3554                15.2754                 5.6289

                    142                    143                    144
                      A                      A                      A
 Frequencies --   3198.7840              3201.2167              3228.3576
 Red. masses --      1.0985                 1.0983                 1.0925
 Frc consts  --      6.6224                 6.6311                 6.7085
 IR Inten    --     11.0661                10.5480                16.3207

 - Thermochemistry -
 -------------------
 Temperature   298.150 Kelvin.  Pressure   1.00000 Atm.
 Atom     1 has atomic number  6 and mass  12.00000

 Molecular mass:   482.99839 amu.
 Principal axes and moments of inertia in atomic units:
                           1         2         3
     Eigenvalues --  ******************************
           X            0.99929  -0.03456  -0.01525
           Y            0.03447   0.99939  -0.00582
           Z            0.01544   0.00529   0.99987
 This molecule is an asymmetric top.
 Rotational symmetry number  1.
 Warning -- assumption of classical behavior for rotation
           may cause significant error
 Rotational temperatures (Kelvin)      0.00820     0.00630     0.00512
 Rotational constants (GHZ):           0.17088     0.13121     0.10664
 Zero-point vibrational energy    1018741.9 (Joules/Mol)
                                  243.48515 (Kcal/Mol)
 Warning -- explicit consideration of  41 degrees of freedom as
           vibrations may cause significant error
 Vibrational temperatures:     17.55    26.15    36.22    47.27    64.45
          (Kelvin)             66.27    70.43    81.35   101.94   113.76
                              125.97   129.52   140.54   155.24   168.01
                              176.11   186.65   194.96   249.20   254.75
                              291.37   304.60   334.40   359.83   373.42
                              401.54   437.22   476.39   506.65   529.31
                              558.46   576.56   583.85   587.58   589.93
                              600.01   625.95   673.01   764.37   791.09
                              812.29   905.80   907.01   911.85   938.76
                              966.26  1010.88  1016.99  1072.00  1095.13
                             1105.15  1131.70  1161.29  1177.59  1195.21
                             1211.97  1218.92  1221.03  1236.19  1262.48
                             1329.01  1329.68  1352.52  1364.64  1386.23
                             1409.59  1413.56  1418.44  1437.91  1440.18
                             1442.86  1453.61  1461.72  1488.74  1512.35
                             1515.52  1524.79  1559.92  1590.33  1596.37
                             1617.90  1622.88  1637.68  1682.98  1688.03
                             1690.63  1690.98  1708.05  1728.30  1735.90
                             1745.53  1764.22  1776.65  1811.18  1832.33
                             1849.46  1881.43  1884.17  1902.59  1913.52
                             1930.79  1944.38  1960.26  1962.84  1970.37
                             2003.96  2013.57  2045.36  2120.21  2121.41
                             2133.28  2133.88  2140.42  2159.99  2168.00
                             2196.56  2198.43  2346.22  2349.91  2378.96
                             2379.99  2564.68  4379.79  4384.80  4401.99
                             4411.92  4428.43  4465.77  4467.99  4469.07
                             4490.57  4491.26  4504.92  4514.37  4561.92
                             4563.07  4572.34  4574.50  4584.98  4587.82
                             4598.17  4602.34  4605.84  4644.89

 Zero-point correction=                           0.388018 (Hartree/Particle)
 Thermal correction to Energy=                    0.416677
 Thermal correction to Enthalpy=                  0.417622
 Thermal correction to Gibbs Free Energy=         0.321940
 Sum of electronic and zero-point Energies=          -3683.625757
 Sum of electronic and thermal Energies=             -3683.597098
 Sum of electronic and thermal Enthalpies=           -3683.596154
 Sum of electronic and thermal Free Energies=        -3683.691836

                     E (Thermal)             CV                S
                      KCal/Mol        Cal/Mol-Kelvin    Cal/Mol-Kelvin
 Total                  261.469            103.974            201.380
 Electronic               0.000              0.000              3.561
 Translational            0.889              2.981             44.412
 Rotational               0.889              2.981             36.151
 Vibrational            259.692             98.012            117.256
 Vibration     1          0.593              1.987              7.616
 Vibration     2          0.593              1.986              6.824
 Vibration     3          0.593              1.985              6.177
 Vibration     4          0.594              1.983              5.649
 Vibration     5          0.595              1.979              5.035
 Vibration     6          0.595              1.979              4.980
 Vibration     7          0.595              1.978              4.859
 Vibration     8          0.596              1.975              4.574
 Vibration     9          0.598              1.968              4.130
 Vibration    10          0.600              1.963              3.914
 Vibration    11          0.601              1.958              3.714
 Vibration    12          0.602              1.956              3.660
 Vibration    13          0.603              1.951              3.500
 Vibration    14          0.606              1.943              3.306
 Vibration    15          0.608              1.935              3.153
 Vibration    16          0.610              1.930              3.062
 Vibration    17          0.612              1.924              2.950
 Vibration    18          0.613              1.918              2.866
 Vibration    19          0.627              1.875              2.400
 Vibration    20          0.628              1.871              2.359
 Vibration    21          0.639              1.836              2.110
 Vibration    22          0.643              1.823              2.029
 Vibration    23          0.653              1.791              1.860
 Vibration    24          0.663              1.763              1.730
 Vibration    25          0.668              1.747              1.665
 Vibration    26          0.679              1.712              1.539
 Vibration    27          0.695              1.666              1.395
 Vibration    28          0.713              1.613              1.255
 Vibration    29          0.729              1.571              1.157
 Vibration    30          0.740              1.538              1.089
 Vibration    31          0.756              1.496              1.007
 Vibration    32          0.767              1.469              0.960
 Vibration    33          0.771              1.458              0.942
 Vibration    34          0.773              1.452              0.932
 Vibration    35          0.774              1.448              0.927
 Vibration    36          0.780              1.433              0.902
 Vibration    37          0.796              1.394              0.842
 Vibration    38          0.825              1.322              0.744
 Vibration    39          0.886              1.181              0.584
 Vibration    40          0.905              1.140              0.545
 Vibration    41          0.920              1.108              0.515

                           ! Non-Optimized Parameters !
 Normal termination of Gaussian 16 at Sat Jun  5 06:12:18 2021.
