 Gaussian 16, Revision A.03,
 Gaussian 16:  ES64L-G16RevA.03 25-Dec-2016

 ----------------------------------------------------------------------
 #p opt=modredundant freq=noraman b3lyp pop=none empiricaldispersion=gd
 3bj jul-cc-pvdz
 ----------------------------------------------------------------------

 -----
 title
 -----
 Symbolic Z-matrix:
 Charge =  0 Multiplicity = 6

 SCF Done:  E(UB3LYP) =  -3683.98970056     A.U. after   25 cycles
 Optimization completed.
    -- Stationary point found.
 Normal termination of Gaussian 16 at Wed Jun  9 11:29:54 2021.

 ----------------------------------------------------------------------
 #P Geom=AllCheck Guess=TCheck SCRF=Check GenChk UB3LYP/Jul-CC-pVDZ Fre
 q
 ----------------------------------------------------------------------

 Structure from the checkpoint file:  "/scratch/kwaneu.2865077.bmbhpcps002/Gau-6956.chk"
 -----
 title
 -----
 Charge =  0 Multiplicity = 6

                         Standard orientation:
 ---------------------------------------------------------------------
 Center     Atomic      Atomic             Coordinates (Angstroms)
 Number     Number       Type             X           Y           Z
 ---------------------------------------------------------------------
      1          6           0       -2.069795    2.134128   -0.009806
      2          6           0       -1.038505    1.270646   -0.420942
      3          6           0       -0.302882    1.593579   -1.569646
      4          6           0       -0.604849    2.743955   -2.304875
      5          6           0       -1.634661    3.591956   -1.895805
      6          6           0       -2.366775    3.281689   -0.741913
      7          6           0       -0.667350    0.031484    0.364197
      8          6           0       -1.727624   -1.101820    0.510782
      9          6           0       -1.300856   -1.851317    1.782311
     10          6           0       -0.887050   -0.764125    2.793367
     11          6           0       -0.351316    0.423512    1.973046
     12          6           0        1.095751    0.539380    1.882540
     13          8           0        0.510055   -0.502107   -0.131021
     14         26           0        1.629780   -1.870303   -0.643104
     15         17           0        2.650737   -2.488367    1.274971
     16         17           0        3.094084   -0.862041   -1.984126
     17         17           0        0.443432   -3.509574   -1.526606
     18          1           0        0.509278    0.939563   -1.878010
     19          1           0       -0.024928    2.975708   -3.198909
     20          1           0       -1.868261    4.491321   -2.467179
     21          1           0       -3.170585    3.940192   -0.410262
     22          1           0       -2.643778    1.916430    0.889359
     23          1           0       -1.632937   -1.718281   -0.390333
     24          6           0       -3.145936   -0.585331    0.594597
     25          1           0       -2.103311   -2.488661    2.170952
     26          1           0       -0.449672   -2.496730    1.538707
     27          1           0       -1.756552   -0.429974    3.368097
     28          1           0       -0.135196   -1.139834    3.499854
     29          1           0       -0.852450    1.367895    2.194220
     30          8           0       -3.735116   -0.594327   -0.612607
     31          8           0       -3.686292   -0.188412    1.611362
     32          6           0       -5.085506   -0.066251   -0.689971
     33          6           0       -6.111205   -1.130234   -0.343017
     34          1           0       -5.159722    0.800107   -0.022065
     35          1           0       -5.177744    0.265212   -1.730895
     36          1           0       -7.122677   -0.721793   -0.483904
     37          1           0       -5.997664   -2.006245   -0.995892
     38          1           0       -6.008097   -1.445625    0.702849
     39          6           0        1.825521    1.645463    1.405994
     40          6           0        1.222423    2.901640    1.120743
     41          6           0        3.192599    1.430009    1.072091
     42          6           0        1.967700    3.901970    0.518444
     43          1           0        0.180034    3.075421    1.374444
     44          6           0        3.923763    2.433622    0.457366
     45          1           0        3.629638    0.447670    1.253607
     46          6           0        3.311250    3.665718    0.185302
     47          1           0        1.510031    4.864116    0.292133
     48          1           0        4.959488    2.259365    0.169334
     49          1           0        3.887806    4.454557   -0.300567
     50          1           0        1.675371   -0.362090    2.102404
 ---------------------------------------------------------------------

 SCF Done:  E(UB3LYP) =  -3683.98970056     A.U. after    2 cycles

 Isotropic polarizability for W=    0.000000      347.61 Bohr**3.
 End of Minotr F.D. properties file   721 does not exist.

 ******    1 imaginary frequencies (negative Signs) ******

                      1                      2                      3
                      A                      A                      A
 Frequencies --   -238.7144                14.8031                21.7873
 Red. masses --     10.8034                18.3069                 5.0435
 Frc consts  --      0.3627                 0.0024                 0.0014
 IR Inten    --     33.3736                 0.2989                 0.9856

                      4                      5                      6
                      A                      A                      A
 Frequencies --     26.6180                30.0669                37.2316
 Red. masses --      8.0769                 4.4184                 5.0095
 Frc consts  --      0.0034                 0.0024                 0.0041
 IR Inten    --      1.5359                 0.5673                 1.1984

                      7                      8                      9
                      A                      A                      A
 Frequencies --     45.9306                56.8274                66.9895
 Red. masses --      7.5968                 4.5112                 4.1126
 Frc consts  --      0.0094                 0.0086                 0.0109
 IR Inten    --      0.3642                 1.3522                 0.5901

                     10                     11                     12
                      A                      A                      A
 Frequencies --     70.9119                77.8189                89.3507
 Red. masses --      3.7765                 4.1505                17.4949
 Frc consts  --      0.0112                 0.0148                 0.0823
 IR Inten    --      0.7616                 0.6988                 1.9957

                     13                     14                     15
                      A                      A                      A
 Frequencies --     93.8369               105.4999               109.1276
 Red. masses --     11.4512                 7.6756                 5.2622
 Frc consts  --      0.0594                 0.0503                 0.0369
 IR Inten    --      0.1382                 4.0680                 0.9299

                     16                     17                     18
                      A                      A                      A
 Frequencies --    117.2921               126.8409               134.1261
 Red. masses --     13.2561                15.7819                 6.3886
 Frc consts  --      0.1074                 0.1496                 0.0677
 IR Inten    --      1.1266                 2.4968                 1.7769

                     19                     20                     21
                      A                      A                      A
 Frequencies --    156.7721               163.0841               176.1186
 Red. masses --      4.7764                 4.4078                 4.6200
 Frc consts  --      0.0692                 0.0691                 0.0844
 IR Inten    --      9.4670                 1.3148                 0.9693

                     22                     23                     24
                      A                      A                      A
 Frequencies --    203.4022               211.3929               253.5630
 Red. masses --      3.2222                 1.6858                 4.1217
 Frc consts  --      0.0785                 0.0444                 0.1561
 IR Inten    --      5.0328                 7.2219                 5.6047

                     25                     26                     27
                      A                      A                      A
 Frequencies --    272.7761               277.6986               297.4829
 Red. masses --      2.2531                 3.9275                 5.0280
 Frc consts  --      0.0988                 0.1784                 0.2622
 IR Inten    --      0.8619                 1.8919                 0.3058

                     28                     29                     30
                      A                      A                      A
 Frequencies --    329.4792               332.5708               338.5028
 Red. masses --      3.6117                19.0256                 4.6997
 Frc consts  --      0.2310                 1.2398                 0.3173
 IR Inten    --      1.1269                50.8064                14.7170

                     31                     32                     33
                      A                      A                      A
 Frequencies --    364.8233               369.4240               383.7567
 Red. masses --     24.3460                 6.2951                 3.0145
 Frc consts  --      1.9092                 0.5062                 0.2616
 IR Inten    --     64.8847                20.3731                24.2081

                     34                     35                     36
                      A                      A                      A
 Frequencies --    391.1242               396.8128               413.7743
 Red. masses --      4.9372                30.7594                 3.1143
 Frc consts  --      0.4450                 2.8536                 0.3142
 IR Inten    --      9.4905                92.4312                 2.9586

                     37                     38                     39
                      A                      A                      A
 Frequencies --    424.3685               438.5238               459.3629
 Red. masses --      3.5539                 3.5594                 3.3818
 Frc consts  --      0.3771                 0.4033                 0.4204
 IR Inten    --      4.0762                22.3277                 2.1736

                     40                     41                     42
                      A                      A                      A
 Frequencies --    496.1494               518.8079               589.4498
 Red. masses --      2.9558                 3.6854                 4.1398
 Frc consts  --      0.4287                 0.5845                 0.8475
 IR Inten    --     41.9067                 1.3971                12.5509

                     43                     44                     45
                      A                      A                      A
 Frequencies --    604.6285               618.6622               626.7440
 Red. masses --      5.8918                 6.2834                 5.4085
 Frc consts  --      1.2690                 1.4169                 1.2517
 IR Inten    --     71.4917                 8.4146                32.1823

                     46                     47                     48
                      A                      A                      A
 Frequencies --    631.8797               648.7681               669.2797
 Red. masses --      5.4790                 2.6383                 1.8194
 Frc consts  --      1.2889                 0.6543                 0.4802
 IR Inten    --     28.2588                 2.5945                40.3258

                     49                     50                     51
                      A                      A                      A
 Frequencies --    681.8744               710.5428               733.5384
 Red. masses --      4.8376                 1.9478                 2.5123
 Frc consts  --      1.3252                 0.5794                 0.7965
 IR Inten    --     18.0517                28.9415                35.6812

                     52                     53                     54
                      A                      A                      A
 Frequencies --    755.9799               771.4202               798.2197
 Red. masses --      2.0137                 1.7774                 1.7192
 Frc consts  --      0.6780                 0.6232                 0.6454
 IR Inten    --     28.3235                26.4391                 6.6504

                     55                     56                     57
                      A                      A                      A
 Frequencies --    814.3360               821.8265               836.6391
 Red. masses --      2.2757                 2.7040                 1.2779
 Frc consts  --      0.8891                 1.0760                 0.5270
 IR Inten    --      3.9000                35.3986                 4.1747

                     58                     59                     60
                      A                      A                      A
 Frequencies --    853.3155               862.7630               867.6618
 Red. masses --      3.6000                 1.3333                 2.6590
 Frc consts  --      1.5444                 0.5848                 1.1794
 IR Inten    --      9.1099                 1.0945                14.1449

                     61                     62                     63
                      A                      A                      A
 Frequencies --    884.8984               903.8917               946.0476
 Red. masses --      3.3051                 3.5871                 1.5870
 Frc consts  --      1.5248                 1.7267                 0.8369
 IR Inten    --      9.1382                10.1232                 8.0625

                     64                     65                     66
                      A                      A                      A
 Frequencies --    953.1859               956.5887               978.6121
 Red. masses --      2.0306                 1.4437                 1.6739
 Frc consts  --      1.0870                 0.7783                 0.9445
 IR Inten    --      2.2717                 6.8316                22.6762

                     67                     68                     69
                      A                      A                      A
 Frequencies --    993.0521               995.6794               997.3522
 Red. masses --      1.6321                 2.3115                 1.3907
 Frc consts  --      0.9483                 1.3502                 0.8150
 IR Inten    --      1.5146                44.7504                 0.5543

                     70                     71                     72
                      A                      A                      A
 Frequencies --   1000.6076              1005.2741              1012.1892
 Red. masses --      4.5087                 1.4960                 3.6403
 Frc consts  --      2.6597                 0.8908                 2.1974
 IR Inten    --      7.4440                 3.4249                 4.8174

                     73                     74                     75
                      A                      A                      A
 Frequencies --   1014.5490              1019.8500              1034.5756
 Red. masses --      1.5878                 1.8379                 2.6912
 Frc consts  --      0.9629                 1.1263                 1.6972
 IR Inten    --     15.4529                30.7140                 5.6095

                     76                     77                     78
                      A                      A                      A
 Frequencies --   1042.2753              1053.1893              1062.4049
 Red. masses --      2.2045                 2.0864                 2.4813
 Frc consts  --      1.4110                 1.3635                 1.6501
 IR Inten    --      3.1863                 1.9848                65.4874

                     79                     80                     81
                      A                      A                      A
 Frequencies --   1080.5227              1091.7655              1105.9702
 Red. masses --      1.7802                 2.5300                 1.6138
 Frc consts  --      1.2246                 1.7767                 1.1630
 IR Inten    --     42.7061                14.7961                23.9256

                     82                     83                     84
                      A                      A                      A
 Frequencies --   1110.7879              1113.6553              1152.1595
 Red. masses --      1.6246                 2.0299                 2.3412
 Frc consts  --      1.1810                 1.4833                 1.8311
 IR Inten    --      6.6611                20.8838               232.5765

                     85                     86                     87
                      A                      A                      A
 Frequencies --   1158.5149              1173.7319              1182.7989
 Red. masses --      1.4830                 1.0829                 1.3089
 Frc consts  --      1.1727                 0.8790                 1.0789
 IR Inten    --      9.9431                 0.4491                13.7992

                     88                     89                     90
                      A                      A                      A
 Frequencies --   1183.5485              1195.4671              1201.6749
 Red. masses --      1.4520                 1.3543                 1.1977
 Frc consts  --      1.1984                 1.1403                 1.0190
 IR Inten    --     41.3188                47.0053                77.3720

                     91                     92                     93
                      A                      A                      A
 Frequencies --   1204.4676              1210.1678              1233.6438
 Red. masses --      1.1500                 1.8304                 1.9655
 Frc consts  --      0.9830                 1.5794                 1.7624
 IR Inten    --      9.8072               179.6418                24.3977

                     94                     95                     96
                      A                      A                      A
 Frequencies --   1255.2444              1266.1209              1288.2797
 Red. masses --      2.9073                 1.4919                 1.5189
 Frc consts  --      2.6990                 1.4091                 1.4853
 IR Inten    --     64.0070                11.2787                34.9900

                     97                     98                     99
                      A                      A                      A
 Frequencies --   1316.7935              1320.3968              1329.8077
 Red. masses --      1.1776                 1.5158                 1.4270
 Frc consts  --      1.2031                 1.5570                 1.4867
 IR Inten    --      7.5507                55.5148                 5.5352

                    100                    101                    102
                      A                      A                      A
 Frequencies --   1335.9059              1349.3884              1358.0612
 Red. masses --      1.6490                 1.6264                 1.3423
 Frc consts  --      1.7339                 1.7448                 1.4587
 IR Inten    --      4.8209                54.2632                16.3523

                    103                    104                    105
                      A                      A                      A
 Frequencies --   1363.8212              1368.8005              1393.0531
 Red. masses --      3.5198                 1.3227                 1.4625
 Frc consts  --      3.8573                 1.4601                 1.6722
 IR Inten    --      3.7777                36.5879                93.7321

                    106                    107                    108
                      A                      A                      A
 Frequencies --   1397.2743              1413.5536              1463.6015
 Red. masses --      5.5501                 1.5469                 2.2685
 Frc consts  --      6.3843                 1.8212                 2.8631
 IR Inten    --     37.8772                31.7454                33.7483

                    109                    110                    111
                      A                      A                      A
 Frequencies --   1470.4822              1475.9430              1477.5480
 Red. masses --      2.3291                 1.0591                 1.0789
 Frc consts  --      2.9672                 1.3594                 1.3878
 IR Inten    --      9.4892                 6.6467                10.7993

                    112                    113                    114
                      A                      A                      A
 Frequencies --   1478.3546              1492.4156              1495.2962
 Red. masses --      1.0886                 1.1276                 1.0647
 Frc consts  --      1.4018                 1.4797                 1.4027
 IR Inten    --      2.7996                12.8099                 9.8228

                    115                    116                    117
                      A                      A                      A
 Frequencies --   1503.7445              1518.9191              1557.7489
 Red. masses --      1.8506                 2.1986                 3.3300
 Frc consts  --      2.4655                 2.9886                 4.7609
 IR Inten    --     26.5718                 7.0316               168.6208

                    118                    119                    120
                      A                      A                      A
 Frequencies --   1600.5694              1621.5175              1644.6536
 Red. masses --      4.5738                 5.7684                 5.6784
 Frc consts  --      6.9036                 8.9361                 9.0495
 IR Inten    --      3.1590                 0.8401                54.0795

                    121                    122                    123
                      A                      A                      A
 Frequencies --   1645.6162              1753.9379              3039.9482
 Red. masses --      5.5991                10.4842                 1.0357
 Frc consts  --      8.9336                19.0026                 5.6389
 IR Inten    --    164.5330               148.0247                20.8801

                    124                    125                    126
                      A                      A                      A
 Frequencies --   3064.7731              3077.5494              3080.4878
 Red. masses --      1.0649                 1.0591                 1.0611
 Frc consts  --      5.8930                 5.9102                 5.9327
 IR Inten    --     19.2818                16.6022                19.0084

                    127                    128                    129
                      A                      A                      A
 Frequencies --   3101.6198              3113.4039              3120.4135
 Red. masses --      1.0855                 1.1003                 1.1029
 Frc consts  --      6.1525                 6.2839                 6.3270
 IR Inten    --      2.4718                20.7569                 0.7435

                    130                    131                    132
                      A                      A                      A
 Frequencies --   3122.8890              3128.0554              3135.2330
 Red. masses --      1.1040                 1.0930                 1.0990
 Frc consts  --      6.3434                 6.3010                 6.3651
 IR Inten    --      3.6185                45.6430                14.0347

                    133                    134                    135
                      A                      A                      A
 Frequencies --   3143.7187              3144.3656              3168.2976
 Red. masses --      1.0912                 1.1079                 1.0854
 Frc consts  --      6.3540                 6.4540                 6.4192
 IR Inten    --      1.7203                19.3199                 0.8203

                    136                    137                    138
                      A                      A                      A
 Frequencies --   3179.3835              3181.1242              3191.4314
 Red. masses --      1.0899                 1.0878                 1.0947
 Frc consts  --      6.4913                 6.4856                 6.5696
 IR Inten    --     10.1644                 2.0119                12.1757

                    139                    140                    141
                      A                      A                      A
 Frequencies --   3193.8092              3199.3977              3202.0006
 Red. masses --      1.0913                 1.0953                 1.0926
 Frc consts  --      6.5585                 6.6059                 6.5999
 IR Inten    --      3.6068                 5.3230                 2.1746

                    142                    143                    144
                      A                      A                      A
 Frequencies --   3211.4819              3220.4114              3227.8754
 Red. masses --      1.0977                 1.0929                 1.0940
 Frc consts  --      6.6705                 6.6784                 6.7160
 IR Inten    --      4.0145                 7.7314                 1.5036

 - Thermochemistry -
 -------------------
 Temperature   298.150 Kelvin.  Pressure   1.00000 Atm.
 Atom     1 has atomic number  6 and mass  12.00000

 Molecular mass:   482.99839 amu.
 Principal axes and moments of inertia in atomic units:
                           1         2         3
     Eigenvalues --  ******************************
           X            0.99801   0.06264   0.00758
           Y           -0.06242   0.99769  -0.02696
           Z           -0.00926   0.02643   0.99961
 This molecule is an asymmetric top.
 Rotational symmetry number  1.
 Warning -- assumption of classical behavior for rotation
           may cause significant error
 Rotational temperatures (Kelvin)      0.00807     0.00609     0.00460
 Rotational constants (GHZ):           0.16819     0.12692     0.09582
    1 imaginary frequencies ignored.
 Zero-point vibrational energy    1012339.7 (Joules/Mol)
                                  241.95499 (Kcal/Mol)
 Warning -- explicit consideration of  43 degrees of freedom as
           vibrations may cause significant error
 Vibrational temperatures:     21.30    31.35    38.30    43.26    53.57
          (Kelvin)             66.08    81.76    96.38   102.03   111.96
                              128.56   135.01   151.79   157.01   168.76
                              182.50   192.98   225.56   234.64   253.40
                              292.65   304.15   364.82   392.46   399.55
                              428.01   474.05   478.50   487.03   524.90
                              531.52   552.14   562.74   570.93   595.33
                              610.57   630.94   660.92   713.85   746.45
                              848.09   869.93   890.12   901.74   909.13
                              933.43   962.94   981.07  1022.31  1055.40
                             1087.69  1109.90  1148.46  1171.65  1182.42
                             1203.74  1227.73  1241.32  1248.37  1273.17
                             1300.50  1361.15  1371.42  1376.32  1408.00
                             1428.78  1432.56  1434.97  1439.65  1446.37
                             1456.31  1459.71  1467.34  1488.52  1499.60
                             1515.30  1528.56  1554.63  1570.81  1591.24
                             1598.18  1602.30  1657.70  1666.84  1688.74
                             1701.78  1702.86  1720.01  1728.94  1732.96
                             1741.16  1774.94  1806.02  1821.67  1853.55
                             1894.57  1899.76  1913.30  1922.07  1941.47
                             1953.95  1962.23  1969.40  2004.29  2010.37
                             2033.79  2105.80  2115.70  2123.55  2125.86
                             2127.02  2147.25  2151.40  2163.55  2185.39
                             2241.25  2302.86  2333.00  2366.29  2367.67
                             2523.53  4373.81  4409.52  4427.91  4432.13
                             4462.54  4479.49  4489.58  4493.14  4500.57
                             4510.90  4523.11  4524.04  4558.47  4574.42
                             4576.93  4591.76  4595.18  4603.22  4606.96
                             4620.61  4633.45  4644.19

 Zero-point correction=                           0.385580 (Hartree/Particle)
 Thermal correction to Energy=                    0.414175
 Thermal correction to Enthalpy=                  0.415119
 Thermal correction to Gibbs Free Energy=         0.320107
 Sum of electronic and zero-point Energies=          -3683.604121
 Sum of electronic and thermal Energies=             -3683.575526
 Sum of electronic and thermal Enthalpies=           -3683.574582
 Sum of electronic and thermal Free Energies=        -3683.669593

                     E (Thermal)             CV                S
                      KCal/Mol        Cal/Mol-Kelvin    Cal/Mol-Kelvin
 Total                  259.898            104.130            199.969
 Electronic               0.000              0.000              3.561
 Translational            0.889              2.981             44.412
 Rotational               0.889              2.981             36.306
 Vibrational            258.121             98.169            115.690
 Vibration     1          0.593              1.986              7.232
 Vibration     2          0.593              1.985              6.464
 Vibration     3          0.593              1.984              6.067
 Vibration     4          0.594              1.984              5.825
 Vibration     5          0.594              1.982              5.401
 Vibration     6          0.595              1.979              4.985
 Vibration     7          0.596              1.975              4.564
 Vibration     8          0.598              1.970              4.240
 Vibration     9          0.598              1.968              4.128
 Vibration    10          0.599              1.964              3.945
 Vibration    11          0.602              1.957              3.674
 Vibration    12          0.603              1.954              3.578
 Vibration    13          0.605              1.945              3.350
 Vibration    14          0.606              1.942              3.284
 Vibration    15          0.608              1.935              3.145
 Vibration    16          0.611              1.926              2.993
 Vibration    17          0.613              1.919              2.886
 Vibration    18          0.620              1.895              2.588
 Vibration    19          0.623              1.888              2.514
 Vibration    20          0.628              1.872              2.369
 Vibration    21          0.639              1.835              2.102
 Vibration    22          0.643              1.823              2.032
 Vibration    23          0.665              1.757              1.706
 Vibration    24          0.676              1.724              1.579
 Vibration    25          0.679              1.715              1.548
 Vibration    26          0.691              1.678              1.431
 Vibration    27          0.712              1.617              1.263
 Vibration    28          0.715              1.610              1.248
 Vibration    29          0.719              1.599              1.219
 Vibration    30          0.738              1.545              1.101
 Vibration    31          0.742              1.535              1.082
 Vibration    32          0.753              1.505              1.024
 Vibration    33          0.759              1.489              0.996
 Vibration    34          0.763              1.477              0.974
 Vibration    35          0.777              1.440              0.913
 Vibration    36          0.786              1.417              0.877
 Vibration    37          0.799              1.386              0.831
 Vibration    38          0.817              1.340              0.768
 Vibration    39          0.852              1.259              0.668
 Vibration    40          0.874              1.208              0.613
 Vibration    41          0.947              1.054              0.468
 Vibration    42          0.963              1.022              0.442
 Vibration    43          0.979              0.992              0.419

                           ! Non-Optimized Parameters !
 Normal termination of Gaussian 16 at Wed Jun  9 20:05:39 2021.
