 Gaussian 16, Revision A.03,
 Gaussian 16:  ES64L-G16RevA.03 25-Dec-2016

 -------------------------------------------------------------------
 #p freq=noraman b3lyp jul-cc-pvdz pop=cm5 empiricaldispersion=gd3bj
 -------------------------------------------------------------------

 -----
 title
 -----
 Symbolic Z-matrix:
 Charge =  0 Multiplicity = 6

                         Standard orientation:
 ---------------------------------------------------------------------
 Center     Atomic      Atomic             Coordinates (Angstroms)
 Number     Number       Type             X           Y           Z
 ---------------------------------------------------------------------
      1          6           0        0.536489   -2.853160   -0.032418
      2          6           0        0.405970   -1.546621    0.465789
      3          6           0        0.260816   -1.356705    1.846151
      4          6           0        0.242850   -2.453383    2.711477
      5          6           0        0.362907   -3.752583    2.209875
      6          6           0        0.514115   -3.948115    0.833363
      7          6           0        0.402530   -0.335292   -0.458274
      8          6           0        1.648083   -0.191361   -1.443970
      9          6           0        1.113642   -0.156678   -2.878181
     10          6           0       -0.334820    0.318737   -2.743845
     11          6           0       -0.848080   -0.520564   -1.540548
     12          6           0       -2.049336   -0.013352   -0.952216
     13          8           0        0.212302    0.812063    0.232625
     14         26           0        0.289652    2.643678    0.478388
     15         17           0        1.543353    3.508093   -1.134686
     16         17           0        1.017408    3.047208    2.518504
     17         17           0       -1.882550    3.257740    0.217363
     18          1           0        0.175532   -0.343359    2.233531
     19          1           0        0.138109   -2.287406    3.784510
     20          1           0        0.348234   -4.607621    2.887276
     21          1           0        0.627577   -4.955671    0.430863
     22          1           0        0.696150   -3.025859   -1.096144
     23          1           0        2.062205    0.784620   -1.172053
     24          6           0        2.735720   -1.225533   -1.233631
     25          1           0        1.705576    0.511296   -3.516675
     26          1           0        1.154298   -1.163265   -3.315981
     27          1           0       -0.382347    1.387758   -2.501667
     28          1           0       -0.941503    0.135942   -3.639868
     29          1           0       -0.897289   -1.578916   -1.813603
     30          8           0        3.581164   -0.826804   -0.270296
     31          8           0        2.869019   -2.242864   -1.885625
     32          6           0        4.706125   -1.695740    0.024893
     33          6           0        4.347304   -2.692595    1.112139
     34          1           0        5.012629   -2.197876   -0.900367
     35          1           0        5.495321   -1.006580    0.349097
     36          1           0        5.239354   -3.282468    1.370207
     37          1           0        3.997289   -2.175739    2.015715
     38          1           0        3.561886   -3.379267    0.772128
     39          6           0       -3.220109   -0.715096   -0.597264
     40          6           0       -4.261979    0.024447    0.032191
     41          6           0       -3.382880   -2.112919   -0.805465
     42          6           0       -5.430422   -0.612512    0.426395
     43          1           0       -4.112417    1.091940    0.204879
     44          6           0       -4.549178   -2.739809   -0.400156
     45          1           0       -2.584813   -2.686970   -1.273700
     46          6           0       -5.571122   -1.990398    0.210055
     47          1           0       -6.228075   -0.048226    0.908787
     48          1           0       -4.677584   -3.811350   -0.551667
     49          1           0       -6.487632   -2.492969    0.523762
     50          1           0       -2.034681    1.050880   -0.689003
 ---------------------------------------------------------------------

 SCF Done:  E(UB3LYP) =  -3683.98480531     A.U. after   26 cycles

 The electronic state is 6-A.
 Alpha  occ. eigenvalues -- -256.17169-101.49294-101.49186-101.48642 -30.16599
 Alpha  occ. eigenvalues --  -26.01917 -26.01834 -26.01732 -19.19697 -19.14451
 Alpha  occ. eigenvalues --  -19.14301 -10.32178 -10.29684 -10.29054 -10.27171
 Alpha  occ. eigenvalues --  -10.26754 -10.26643 -10.26520 -10.25722 -10.25469
 Alpha  occ. eigenvalues --  -10.24555 -10.24062 -10.22030 -10.21322 -10.21152
 Alpha  occ. eigenvalues --  -10.20818 -10.20769 -10.20711 -10.20500 -10.20295
 Alpha  occ. eigenvalues --  -10.20043 -10.18553  -9.40982  -9.40889  -9.40363
 Alpha  occ. eigenvalues --   -7.16854  -7.16752  -7.16527  -7.16509  -7.16447
 Alpha  occ. eigenvalues --   -7.16432  -7.16231  -7.15924  -7.15896  -3.64343
 Alpha  occ. eigenvalues --   -2.41933  -2.41665  -2.41511  -1.11508  -1.03385
 Alpha  occ. eigenvalues --   -1.02925  -0.93310  -0.88324  -0.87200  -0.84501
 Alpha  occ. eigenvalues --   -0.81841  -0.79679  -0.78120  -0.77376  -0.76996
 Alpha  occ. eigenvalues --   -0.76393  -0.76272  -0.75972  -0.73118  -0.70521
 Alpha  occ. eigenvalues --   -0.67464  -0.66872  -0.64758  -0.62726  -0.61794
 Alpha  occ. eigenvalues --   -0.60639  -0.59159  -0.57952  -0.55983  -0.54695
 Alpha  occ. eigenvalues --   -0.53845  -0.53316  -0.51855  -0.50752  -0.50038
 Alpha  occ. eigenvalues --   -0.49048  -0.48850  -0.48300  -0.47963  -0.46944
 Alpha  occ. eigenvalues --   -0.46309  -0.45778  -0.45187  -0.44813  -0.44561
 Alpha  occ. eigenvalues --   -0.44441  -0.44326  -0.44229  -0.43546  -0.43358
 Alpha  occ. eigenvalues --   -0.42350  -0.42057  -0.41293  -0.40920  -0.40394
 Alpha  occ. eigenvalues --   -0.39861  -0.39130  -0.38752  -0.37860  -0.37586
 Alpha  occ. eigenvalues --   -0.37038  -0.36536  -0.35928  -0.35354  -0.34544
 Alpha  occ. eigenvalues --   -0.34177  -0.33698  -0.32390  -0.31845  -0.31600
 Alpha  occ. eigenvalues --   -0.31139  -0.29527  -0.28633  -0.28196  -0.27876
 Alpha  occ. eigenvalues --   -0.27640  -0.27493  -0.27234  -0.27030  -0.26567
 Alpha  occ. eigenvalues --   -0.26225  -0.26141
 Alpha virt. eigenvalues --   -0.17398  -0.07578  -0.04911  -0.03606  -0.03185
 Alpha virt. eigenvalues --   -0.02840  -0.01562  -0.01216  -0.00707  -0.00366
 Alpha virt. eigenvalues --    0.00461   0.00689   0.01132   0.01306   0.01516

  Beta  occ. eigenvalues -- -256.16984-101.49142-101.48999-101.48451 -30.07687
  Beta  occ. eigenvalues --  -25.94435 -25.94408 -25.94354 -19.19696 -19.14448
  Beta  occ. eigenvalues --  -19.13608 -10.32178 -10.29662 -10.29044 -10.27167
  Beta  occ. eigenvalues --  -10.26751 -10.26644 -10.26516 -10.25724 -10.25471
  Beta  occ. eigenvalues --  -10.24555 -10.24042 -10.22033 -10.21302 -10.21134
  Beta  occ. eigenvalues --  -10.20817 -10.20769 -10.20710 -10.20500 -10.20294
  Beta  occ. eigenvalues --  -10.20043 -10.18553  -9.40833  -9.40705  -9.40176
  Beta  occ. eigenvalues --   -7.16575  -7.16447  -7.16349  -7.16311  -7.16193
  Beta  occ. eigenvalues --   -7.16178  -7.15928  -7.15646  -7.15644  -3.43576
  Beta  occ. eigenvalues --   -2.19879  -2.19845  -2.19750  -1.11505  -1.02927
  Beta  occ. eigenvalues --   -1.02060  -0.93294  -0.88158  -0.87187  -0.84452
  Beta  occ. eigenvalues --   -0.81837  -0.79656  -0.78018  -0.77346  -0.76265
  Beta  occ. eigenvalues --   -0.75922  -0.75217  -0.74665  -0.73079  -0.70417
  Beta  occ. eigenvalues --   -0.67422  -0.66808  -0.64700  -0.62646  -0.61760
  Beta  occ. eigenvalues --   -0.60614  -0.58808  -0.57881  -0.55812  -0.54611
  Beta  occ. eigenvalues --   -0.53570  -0.53045  -0.51421  -0.50522  -0.49991
  Beta  occ. eigenvalues --   -0.48877  -0.48601  -0.47988  -0.47849  -0.46797
  Beta  occ. eigenvalues --   -0.46052  -0.45480  -0.44546  -0.44313  -0.43721
  Beta  occ. eigenvalues --   -0.43475  -0.42152  -0.41589  -0.41306  -0.40481
  Beta  occ. eigenvalues --   -0.39866  -0.39096  -0.38789  -0.37821  -0.37586
  Beta  occ. eigenvalues --   -0.37071  -0.36527  -0.35811  -0.35319  -0.34730
  Beta  occ. eigenvalues --   -0.34536  -0.34065  -0.32680  -0.32382  -0.32359
  Beta  occ. eigenvalues --   -0.31165  -0.30693  -0.30349  -0.29900  -0.29496
  Beta  occ. eigenvalues --   -0.29376  -0.28375  -0.27217  -0.27013  -0.26564
  Beta  occ. eigenvalues --   -0.26357  -0.26165
  Beta virt. eigenvalues --   -0.17407  -0.10992  -0.10891  -0.10034  -0.09726
  Beta virt. eigenvalues --   -0.08868  -0.07563  -0.04877  -0.03587  -0.03157
  Beta virt. eigenvalues --   -0.02826  -0.01556  -0.01170  -0.00689  -0.00348

 Mulliken charges and spin densities:
               1          2
     1  C   -0.510410   0.000631
     2  C    2.104446  -0.006521
     3  C   -0.596462  -0.004657
     4  C   -0.023857   0.005101
     5  C    0.286675  -0.001446
     6  C    0.054131   0.001817
     7  C   -0.728915   0.010728
     8  C    0.668380  -0.000930
     9  C    0.713190   0.003963
    10  C    0.905765  -0.001193
    11  C   -1.115839   0.030449
    12  C   -0.024582  -0.011860
    13  O   -0.627081   0.222485
    14  Fe   0.721552   4.030654
    15  Cl  -0.454385   0.246473
    16  Cl  -0.432795   0.264265
    17  Cl  -0.485167   0.196048
    18  H   -0.184931   0.000362
    19  H   -0.170782   0.000001
    20  H   -0.179248   0.000030
    21  H   -0.179395   0.000187
    22  H   -0.222144  -0.000012
    23  H   -0.222621   0.000956
    24  C    1.087324   0.002200
    25  H   -0.149948   0.000217
    26  H   -0.089643  -0.000102
    27  H   -0.026434   0.000208
    28  H   -0.171964   0.000303
    29  H   -0.255675   0.000297
    30  O   -0.786585  -0.001145
    31  O   -0.631513   0.000972
    32  C    0.408746  -0.000289
    33  C    0.085020   0.000106
    34  H   -0.035468   0.000006
    35  H   -0.072320  -0.000004
    36  H   -0.035754   0.000003
    37  H    0.025510   0.000003
    38  H    0.027466  -0.000015
    39  C    2.750200   0.001979
    40  C   -0.333121   0.002719
    41  C    0.182964   0.002231
    42  C   -0.115038  -0.001906
    43  H   -0.173935   0.000065
    44  C   -0.197474  -0.002251
    45  H   -0.224658  -0.000072
    46  C    0.247594   0.003860
    47  H   -0.156122   0.000029
    48  H   -0.157225   0.000013
    49  H   -0.146677  -0.000056
    50  H   -0.350794   0.003097
 Sum of Mulliken charges =  -0.00000   5.00000

 Dipole moment (field-independent basis, Debye):
    X=             -8.1584    Y=            -11.6422    Z=             -2.2502  Tot=             14.3932
 Quadrupole moment (field-independent basis, Debye-Ang):
   XX=           -154.2714   YY=           -218.8171   ZZ=           -199.7206
   XY=              9.8548   XZ=              2.9600   YZ=             -9.9850

  Exact polarizability: 441.187  23.783 368.036  -8.159  -6.651 307.112
 Approx polarizability: 650.242  34.334 575.462 -35.001   6.294 527.161

 ******    1 imaginary frequencies (negative Signs) ******

                      1                      2                      3
                      A                      A                      A
 Frequencies --    -19.2629                11.1549                14.0775
 Red. masses --      5.5291                11.2600                 6.2346
 Frc consts  --      0.0012                 0.0008                 0.0007
 IR Inten    --      3.1726                 0.2230                 0.9482

                      4                      5                      6
                      A                      A                      A
 Frequencies --     30.2142                33.7269                36.6954
 Red. masses --      6.8848                 4.3209                 4.2001
 Frc consts  --      0.0037                 0.0029                 0.0033
 IR Inten    --      1.3550                 0.2091                 0.8979

                      7                      8                      9
                      A                      A                      A
 Frequencies --     44.1077                47.5472                63.6386
 Red. masses --      3.9447                 3.9631                 6.5201
 Frc consts  --      0.0045                 0.0053                 0.0156
 IR Inten    --      0.7273                 0.3329                 1.1245

                     10                     11                     12
                      A                      A                      A
 Frequencies --     75.3905                85.7412                90.5058
 Red. masses --      5.0235                13.0461                 7.3563
 Frc consts  --      0.0168                 0.0565                 0.0355
 IR Inten    --      1.0221                 0.2867                 1.9487

                     13                     14                     15
                      A                      A                      A
 Frequencies --     98.1634               108.8282               118.7024
 Red. masses --      7.7837                 5.6267                17.1440
 Frc consts  --      0.0442                 0.0393                 0.1423
 IR Inten    --      0.2956                 1.6197                 1.0633

                     16                     17                     18
                      A                      A                      A
 Frequencies --    122.3390               131.8976               147.0500
 Red. masses --     12.8770                 6.5324                 5.2976
 Frc consts  --      0.1136                 0.0670                 0.0675
 IR Inten    --      7.1107                 4.1356                 4.1207

                     19                     20                     21
                      A                      A                      A
 Frequencies --    152.6025               181.3895               193.5006
 Red. masses --      6.4543                 2.6043                 3.6190
 Frc consts  --      0.0886                 0.0505                 0.0798
 IR Inten    --      6.6965                 9.6683                 6.1381

                     22                     23                     24
                      A                      A                      A
 Frequencies --    211.1314               226.6656               252.1049
 Red. masses --      2.2416                 3.3508                 3.6336
 Frc consts  --      0.0589                 0.1014                 0.1361
 IR Inten    --      3.5260                 9.2626                33.9206

                     25                     26                     27
                      A                      A                      A
 Frequencies --    262.6524               276.2972               280.3702
 Red. masses --      3.0413                 4.4805                 5.1779
 Frc consts  --      0.1236                 0.2015                 0.2398
 IR Inten    --     11.8122                 2.8339                 1.5078

                     28                     29                     30
                      A                      A                      A
 Frequencies --    324.0325               340.9250               349.1300
 Red. masses --     16.8374                 4.9308                 3.4603
 Frc consts  --      1.0416                 0.3377                 0.2485
 IR Inten    --     37.1696                 9.7034                 6.3060

                     31                     32                     33
                      A                      A                      A
 Frequencies --    361.2995               369.0379               384.3231
 Red. masses --      4.5114                30.2025                 3.2924
 Frc consts  --      0.3470                 2.4235                 0.2865
 IR Inten    --     20.2633                80.6992                 3.5155

                     34                     35                     36
                      A                      A                      A
 Frequencies --    400.2446               409.7937               419.1766
 Red. masses --     40.3322                 3.5378                 3.2630
 Frc consts  --      3.8067                 0.3500                 0.3378
 IR Inten    --     88.7823                46.1111                 4.0615

                     37                     38                     39
                      A                      A                      A
 Frequencies --    434.4459               443.0755               470.6774
 Red. masses --      4.4995                 3.7112                 3.3119
 Frc consts  --      0.5004                 0.4293                 0.4323
 IR Inten    --     16.6285                70.7529                13.0117

                     40                     41                     42
                      A                      A                      A
 Frequencies --    489.5168               526.9042               559.5412
 Red. masses --      3.0949                 3.1242                 2.8555
 Frc consts  --      0.4370                 0.5110                 0.5267
 IR Inten    --     18.7610                36.6377                19.3247

                     43                     44                     45
                      A                      A                      A
 Frequencies --    582.7740               600.8551               620.8769
 Red. masses --      4.3165                 5.6896                 6.1381
 Frc consts  --      0.8637                 1.2102                 1.3941
 IR Inten    --     72.1952               157.8732                 9.9660

                     46                     47                     48
                      A                      A                      A
 Frequencies --    629.6723               641.4132               669.7687
 Red. masses --      6.3111                 4.8609                 1.7052
 Frc consts  --      1.4743                 1.1783                 0.4507
 IR Inten    --      0.7500                25.4494                21.8900

                     49                     50                     51
                      A                      A                      A
 Frequencies --    699.5382               711.0468               717.9266
 Red. masses --      4.6523                 2.7173                 2.0484
 Frc consts  --      1.3413                 0.8094                 0.6221
 IR Inten    --    167.8137                73.8865                73.9316

                     52                     53                     54
                      A                      A                      A
 Frequencies --    757.2676               777.2764               785.9783
 Red. masses --      2.2357                 1.7896                 4.1349
 Frc consts  --      0.7554                 0.6370                 1.5050
 IR Inten    --      7.5986                33.2756                23.5120

                     55                     56                     57
                      A                      A                      A
 Frequencies --    797.9218               835.8785               842.0952
 Red. masses --      1.6528                 2.2794                 1.3397
 Frc consts  --      0.6200                 0.9383                 0.5597
 IR Inten    --     54.9292                49.0022                 2.6192

                     58                     59                     60
                      A                      A                      A
 Frequencies --    853.9538               858.7436               867.3771
 Red. masses --      3.6599                 1.2689                 2.6183
 Frc consts  --      1.5725                 0.5513                 1.1606
 IR Inten    --     20.8082                 4.1046                18.9724

                     61                     62                     63
                      A                      A                      A
 Frequencies --    897.0821               900.8814               935.6718
 Red. masses --      2.0296                 2.5640                 2.2864
 Frc consts  --      0.9623                 1.2261                 1.1794
 IR Inten    --      1.6503                17.1793                 8.9451

                     64                     65                     66
                      A                      A                      A
 Frequencies --    947.7680               963.8745               983.3440
 Red. masses --      1.7213                 1.3635                 2.4595
 Frc consts  --      0.9110                 0.7464                 1.4012
 IR Inten    --      6.7632                 0.5141                 8.0388

                     67                     68                     69
                      A                      A                      A
 Frequencies --    988.2298               992.8251               997.6265
 Red. masses --      1.6072                 2.3325                 1.4932
 Frc consts  --      0.9247                 1.3546                 0.8756
 IR Inten    --      1.7543                18.6678                 0.8361

                     70                     71                     72
                      A                      A                      A
 Frequencies --    999.4368              1002.6144              1013.8354
 Red. masses --      4.5167                 1.3899                 4.4554
 Frc consts  --      2.6582                 0.8232                 2.6982
 IR Inten    --      6.9758                 2.2439                 2.1370

                     73                     74                     75
                      A                      A                      A
 Frequencies --   1019.6295              1027.5734              1039.8351
 Red. masses --      1.3757                 2.3833                 2.1914
 Frc consts  --      0.8427                 1.4827                 1.3961
 IR Inten    --      1.0422                35.1563                 1.9648

                     76                     77                     78
                      A                      A                      A
 Frequencies --   1044.4607              1048.1036              1052.7891
 Red. masses --      1.9656                 2.5749                 2.2008
 Frc consts  --      1.2633                 1.6665                 1.4372
 IR Inten    --      4.2609                29.4699                 3.8338

                     79                     80                     81
                      A                      A                      A
 Frequencies --   1085.1877              1102.8688              1107.5177
 Red. masses --      2.0075                 1.7364                 1.5874
 Frc consts  --      1.3929                 1.2444                 1.1472
 IR Inten    --     71.1207                74.8667                13.2566

                     82                     83                     84
                      A                      A                      A
 Frequencies --   1113.5204              1120.4654              1153.7960
 Red. masses --      2.0521                 2.2520                 1.7745
 Frc consts  --      1.4992                 1.6658                 1.3918
 IR Inten    --     18.2553               366.3292                 5.4212

                     85                     86                     87
                      A                      A                      A
 Frequencies --   1172.7328              1181.7761              1183.1285
 Red. masses --      1.0853                 1.7425                 1.1026
 Frc consts  --      0.8794                 1.4338                 0.9094
 IR Inten    --      1.8290               161.9623                 2.1715

                     88                     89                     90
                      A                      A                      A
 Frequencies --   1191.7403              1198.6026              1200.5201
 Red. masses --      1.4114                 1.2109                 1.1674
 Frc consts  --      1.1810                 1.0250                 0.9913
 IR Inten    --     59.2463                 3.4114                37.0782

                     91                     92                     93
                      A                      A                      A
 Frequencies --   1208.4113              1217.0151              1228.0462
 Red. masses --      2.4745                 2.4081                 1.5848
 Frc consts  --      2.1289                 2.1015                 1.4082
 IR Inten    --    115.9679               217.4856                11.8990

                     94                     95                     96
                      A                      A                      A
 Frequencies --   1255.4716              1294.2426              1303.1000
 Red. masses --      1.9542                 1.3697                 1.5385
 Frc consts  --      1.8148                 1.3518                 1.5392
 IR Inten    --    150.7600                15.7856                24.3057

                     97                     98                     99
                      A                      A                      A
 Frequencies --   1315.7068              1320.5900              1327.9467
 Red. masses --      1.3295                 1.3268                 1.4469
 Frc consts  --      1.3560                 1.3633                 1.5033
 IR Inten    --     51.0914               100.7079                78.1492

                    100                    101                    102
                      A                      A                      A
 Frequencies --   1337.9871              1349.3882              1359.6929
 Red. masses --      1.5562                 1.6338                 1.6371
 Frc consts  --      1.6414                 1.7527                 1.7832
 IR Inten    --     34.8289                64.3861                38.4641

                    103                    104                    105
                      A                      A                      A
 Frequencies --   1361.5774              1372.9179              1393.8924
 Red. masses --      2.5193                 1.3188                 1.5121
 Frc consts  --      2.7518                 1.4646                 1.7310
 IR Inten    --      7.1081                19.5035                89.3522

                    106                    107                    108
                      A                      A                      A
 Frequencies --   1395.9917              1413.6747              1464.6132
 Red. masses --      4.6811                 1.5142                 2.2435
 Frc consts  --      5.3748                 1.7830                 2.8354
 IR Inten    --     40.4706                33.0637                55.5780

                    109                    110                    111
                      A                      A                      A
 Frequencies --   1471.3752              1476.0991              1478.6255
 Red. masses --      2.2956                 1.0512                 1.0764
 Frc consts  --      2.9281                 1.3495                 1.3865
 IR Inten    --      9.4518                11.0804                 3.2321

                    112                    113                    114
                      A                      A                      A
 Frequencies --   1480.8998              1490.4158              1494.9458
 Red. masses --      1.0870                 1.0724                 1.1096
 Frc consts  --      1.4046                 1.4035                 1.4611
 IR Inten    --     17.4251                24.7582                11.1888

                    115                    116                    117
                      A                      A                      A
 Frequencies --   1509.2030              1518.7826              1566.1661
 Red. masses --      1.9868                 2.1989                 3.0869
 Frc consts  --      2.6662                 2.9885                 4.4612
 IR Inten    --     16.0910                 7.2692               350.7955

                    118                    119                    120
                      A                      A                      A
 Frequencies --   1600.8163              1625.0532              1641.2588
 Red. masses --      4.5306                 5.8149                 5.5893
 Frc consts  --      6.8406                 9.0474                 8.8708
 IR Inten    --     15.1270                 1.6886               209.3902

                    121                    122                    123
                      A                      A                      A
 Frequencies --   1644.0414              1761.3570              3038.5750
 Red. masses --      5.6804                10.8393                 1.0362
 Frc consts  --      9.0460                19.8128                 5.6368
 IR Inten    --     26.6116               167.3470                14.7432

                    124                    125                    126
                      A                      A                      A
 Frequencies --   3057.7987              3063.9860              3076.4065
 Red. masses --      1.0599                 1.0601                 1.0590
 Frc consts  --      5.8389                 5.8638                 5.9050
 IR Inten    --      7.1173                21.8733                31.6003

                    127                    128                    129
                      A                      A                      A
 Frequencies --   3096.8295              3102.3281              3111.4046
 Red. masses --      1.0930                 1.0962                 1.0935
 Frc consts  --      6.1761                 6.2160                 6.2372
 IR Inten    --    101.7564                13.3709                14.2088

                    130                    131                    132
                      A                      A                      A
 Frequencies --   3112.9972              3115.9635              3122.1512
 Red. masses --      1.0999                 1.0921                 1.1038
 Frc consts  --      6.2798                 6.2476                 6.3393
 IR Inten    --     33.1258                 0.7932                 6.1181

                    133                    134                    135
                      A                      A                      A
 Frequencies --   3127.9912              3143.6124              3166.2388
 Red. masses --      1.1001                 1.1081                 1.0851
 Frc consts  --      6.3419                 6.4521                 6.4095
 IR Inten    --      5.7951                15.8494                 0.4665

                    136                    137                    138
                      A                      A                      A
 Frequencies --   3176.6446              3179.0367              3184.8329
 Red. masses --      1.0895                 1.0877                 1.0917
 Frc consts  --      6.4779                 6.4768                 6.5239
 IR Inten    --      9.5905                 2.5386                 4.2106

                    139                    140                    141
                      A                      A                      A
 Frequencies --   3187.9094              3195.1303              3196.6139
 Red. masses --      1.0935                 1.0967                 1.0911
 Frc consts  --      6.5476                 6.5967                 6.5686
 IR Inten    --     13.4834                 6.8801                 1.0232

                    142                    143                    144
                      A                      A                      A
 Frequencies --   3205.3972              3212.5023              3212.8576
 Red. masses --      1.0968                 1.0966                 1.0932
 Frc consts  --      6.6393                 6.6675                 6.6489
 IR Inten    --      5.5598                 4.0045                 4.8745

 - Thermochemistry -
 -------------------
 Temperature   298.150 Kelvin.  Pressure   1.00000 Atm.
 Atom     1 has atomic number  6 and mass  12.00000

 Molecular mass:   482.99839 amu.
 Principal axes and moments of inertia in atomic units:
                           1         2         3
     Eigenvalues --  ******************************
           X            0.99590  -0.09042   0.00366
           Y            0.09047   0.99568  -0.02066
           Z           -0.00177   0.02091   0.99978
 This molecule is an asymmetric top.
 Rotational symmetry number  1.
 Warning -- assumption of classical behavior for rotation
           may cause significant error
 Rotational temperatures (Kelvin)      0.00674     0.00616     0.00428
 Rotational constants (GHZ):           0.14041     0.12844     0.08915
    1 imaginary frequencies ignored.
 Zero-point vibrational energy    1012417.2 (Joules/Mol)
                                  241.97351 (Kcal/Mol)
 Warning -- explicit consideration of  43 degrees of freedom as
           vibrations may cause significant error
 Vibrational temperatures:     16.05    20.25    43.47    48.53    52.80
          (Kelvin)             63.46    68.41    91.56   108.47   123.36
                              130.22   141.24   156.58   170.79   176.02
                              189.77   211.57   219.56   260.98   278.40
                              303.77   326.12   362.72   377.90   397.53
                              403.39   466.21   490.52   502.32   519.83
                              530.96   552.96   575.86   589.60   603.10
                              625.07   637.49   677.20   704.31   758.10
                              805.06   838.48   864.50   893.30   905.96
                              922.85   963.65  1006.48  1023.04  1032.94
                             1089.54  1118.33  1130.85  1148.03  1202.64
                             1211.59  1228.65  1235.54  1247.96  1290.70
                             1296.17  1346.22  1363.63  1386.80  1414.81
                             1421.84  1428.45  1435.36  1437.97  1442.54
                             1458.68  1467.02  1478.45  1496.09  1502.75
                             1507.99  1514.73  1561.34  1586.78  1593.47
                             1602.11  1612.10  1660.06  1687.30  1700.31
                             1702.26  1714.65  1724.52  1727.28  1738.63
                             1751.01  1766.88  1806.34  1862.13  1874.87
                             1893.01  1900.03  1910.62  1925.06  1941.47
                             1956.29  1959.01  1975.32  2005.50  2008.52
                             2033.96  2107.25  2116.98  2123.78  2127.41
                             2130.68  2144.38  2150.89  2171.41  2185.19
                             2253.36  2303.22  2338.09  2361.41  2365.41
                             2534.20  4371.83  4399.49  4408.39  4426.26
                             4455.65  4463.56  4476.62  4478.91  4483.18
                             4492.08  4500.48  4522.96  4555.51  4570.48
                             4573.92  4582.26  4586.69  4597.08  4599.21
                             4611.85  4622.07  4622.59

 Zero-point correction=                           0.385609 (Hartree/Particle)
 Thermal correction to Energy=                    0.414075
 Thermal correction to Enthalpy=                  0.415019
 Thermal correction to Gibbs Free Energy=         0.319848
 Sum of electronic and zero-point Energies=          -3683.599196
 Sum of electronic and thermal Energies=             -3683.570731
 Sum of electronic and thermal Enthalpies=           -3683.569786
 Sum of electronic and thermal Free Energies=        -3683.664957

                     E (Thermal)             CV                S
                      KCal/Mol        Cal/Mol-Kelvin    Cal/Mol-Kelvin
 Total                  259.836            104.032            200.304
 Electronic               0.000              0.000              3.561
 Translational            0.889              2.981             44.412
 Rotational               0.889              2.981             36.545
 Vibrational            258.058             98.070            115.786
 Vibration     1          0.593              1.987              7.794
 Vibration     2          0.593              1.986              7.332
 Vibration     3          0.594              1.984              5.815
 Vibration     4          0.594              1.983              5.597
 Vibration     5          0.594              1.982              5.430
 Vibration     6          0.595              1.980              5.065
 Vibration     7          0.595              1.979              4.917
 Vibration     8          0.597              1.972              4.341
 Vibration     9          0.599              1.965              4.007
 Vibration    10          0.601              1.959              3.755
 Vibration    11          0.602              1.956              3.649
 Vibration    12          0.604              1.950              3.490
 Vibration    13          0.606              1.942              3.290
 Vibration    14          0.609              1.934              3.121
 Vibration    15          0.610              1.930              3.063
 Vibration    16          0.612              1.921              2.918
 Vibration    17          0.617              1.906              2.710
 Vibration    18          0.619              1.900              2.640
 Vibration    19          0.630              1.865              2.314
 Vibration    20          0.635              1.849              2.194
 Vibration    21          0.643              1.824              2.034
 Vibration    22          0.650              1.800              1.905
 Vibration    23          0.664              1.759              1.716
 Vibration    24          0.670              1.741              1.644
 Vibration    25          0.678              1.717              1.556
 Vibration    26          0.680              1.710              1.531
 Vibration    27          0.709              1.627              1.290
 Vibration    28          0.720              1.594              1.208
 Vibration    29          0.726              1.577              1.170
 Vibration    30          0.735              1.552              1.117
 Vibration    31          0.741              1.536              1.084
 Vibration    32          0.753              1.504              1.022
 Vibration    33          0.766              1.470              0.962
 Vibration    34          0.774              1.449              0.927
 Vibration    35          0.782              1.429              0.895
 Vibration    36          0.795              1.395              0.844
 Vibration    37          0.803              1.376              0.817
 Vibration    38          0.828              1.315              0.736
 Vibration    39          0.845              1.273              0.685
 Vibration    40          0.882              1.190              0.594
 Vibration    41          0.915              1.119              0.525
 Vibration    42          0.940              1.069              0.480
 Vibration    43          0.959              1.030              0.448

 Normal termination of Gaussian 16 at Sun Jul 18 06:03:16 2021.
