 Gaussian 16, Revision A.03,
 Gaussian 16:  ES64L-G16RevA.03 25-Dec-2016

 -------------------------------------------------------------------
 #p freq=noraman b3lyp jul-cc-pvdz pop=cm5 empiricaldispersion=gd3bj
 -------------------------------------------------------------------

 -----
 title
 -----
 Symbolic Z-matrix:
 Charge =  0 Multiplicity = 6

                         Standard orientation:
 ---------------------------------------------------------------------
 Center     Atomic      Atomic             Coordinates (Angstroms)
 Number     Number       Type             X           Y           Z
 ---------------------------------------------------------------------
      1          6           0       -1.170006    2.708572    0.389709
      2          6           0       -0.536891    1.564873   -0.119741
      3          6           0       -0.581824    1.324503   -1.497844
      4          6           0       -1.239356    2.215350   -2.349845
      5          6           0       -1.866492    3.354016   -1.836292
      6          6           0       -1.828575    3.598629   -0.459859
      7          6           0        0.169027    0.573546    0.788808
      8          6           0        1.117863    1.188774    1.875517
      9          6           0        1.244604    0.133911    2.981075
     10          6           0       -0.031953   -0.740767    2.908430
     11          6           0       -0.970572   -0.074538    1.882375
     12          6           0       -1.832391   -0.926769    1.138258
     13          8           0        0.798480   -0.401367    0.133449
     14         26           0        1.383642   -1.984478   -0.626240
     15         17           0        2.687095   -3.018038    0.823310
     16         17           0        2.323471   -1.489829   -2.562880
     17         17           0       -0.494511   -3.212404   -0.967929
     18          1           0       -0.081195    0.448496   -1.905054
     19          1           0       -1.252803    2.018222   -3.422469
     20          1           0       -2.375269    4.050842   -2.503737
     21          1           0       -2.305053    4.488698   -0.046631
     22          1           0       -1.140382    2.928981    1.457797
     23          1           0        0.657363    2.111638    2.249027
     24          6           0        2.442212    1.572046    1.230556
     25          1           0        2.140326   -0.471757    2.812375
     26          1           0        1.352911    0.614487    3.961152
     27          1           0        0.214964   -1.759452    2.585868
     28          1           0       -0.552416   -0.817990    3.871632
     29          1           0       -1.476148    0.805552    2.291845
     30          8           0        2.278207    2.625879    0.409734
     31          8           0        3.495211    1.010908    1.423843
     32          6           0        3.451869    3.035604   -0.342741
     33          6           0        3.044011    4.211827   -1.204135
     34          1           0        4.248552    3.290800    0.368708
     35          1           0        3.789310    2.178520   -0.940108
     36          1           0        3.909177    4.548357   -1.793003
     37          1           0        2.239984    3.928904   -1.896994
     38          1           0        2.696442    5.051776   -0.586585
     39          6           0       -3.147394   -0.654890    0.695580
     40          6           0       -3.749802   -1.583956   -0.198977
     41          6           0       -3.869702    0.509372    1.075922
     42          6           0       -5.028405   -1.356466   -0.688842
     43          1           0       -3.174652   -2.457918   -0.507944
     44          6           0       -5.142947    0.729874    0.577139
     45          1           0       -3.421171    1.226830    1.760466
     46          6           0       -5.722065   -0.201776   -0.301609
     47          1           0       -5.485670   -2.065970   -1.377952
     48          1           0       -5.697807    1.622325    0.865800
     49          1           0       -6.726457   -0.021116   -0.688051
     50          1           0       -1.390085   -1.852951    0.756447
 ---------------------------------------------------------------------

 SCF Done:  E(UB3LYP) =  -3683.98599180     A.U. after   26 cycles

 The electronic state is 6-A.
 Alpha  occ. eigenvalues -- -256.17450-101.49641-101.48875-101.48770 -30.16873
 Alpha  occ. eigenvalues --  -26.02235 -26.02090 -26.01980 -19.19429 -19.14982
 Alpha  occ. eigenvalues --  -19.14042 -10.31844 -10.30405 -10.28130 -10.26287
 Alpha  occ. eigenvalues --  -10.25974 -10.25910 -10.25553 -10.24984 -10.24675
 Alpha  occ. eigenvalues --  -10.24388 -10.24248 -10.22199 -10.21754 -10.21553
 Alpha  occ. eigenvalues --  -10.21515 -10.21363 -10.21160 -10.20900 -10.20374
 Alpha  occ. eigenvalues --  -10.19666 -10.18793  -9.41340  -9.40585  -9.40473
 Alpha  occ. eigenvalues --   -7.17211  -7.16897  -7.16855  -7.16456  -7.16347
 Alpha  occ. eigenvalues --   -7.16141  -7.16124  -7.16033  -7.16009  -3.64620
 Alpha  occ. eigenvalues --   -2.42297  -2.41921  -2.41717  -1.11234  -1.04510
 Alpha  occ. eigenvalues --   -1.02627  -0.92576  -0.88370  -0.87262  -0.84013
 Alpha  occ. eigenvalues --   -0.81060  -0.79609  -0.78431  -0.77389  -0.77185
 Alpha  occ. eigenvalues --   -0.76770  -0.76343  -0.76000  -0.73237  -0.70240
 Alpha  occ. eigenvalues --   -0.66856  -0.66229  -0.64378  -0.63130  -0.61925
 Alpha  occ. eigenvalues --   -0.60030  -0.59442  -0.57547  -0.56505  -0.55095
 Alpha  occ. eigenvalues --   -0.53963  -0.52886  -0.51113  -0.50850  -0.49932
 Alpha  occ. eigenvalues --   -0.49648  -0.48695  -0.48038  -0.47683  -0.46951
 Alpha  occ. eigenvalues --   -0.46742  -0.46042  -0.45316  -0.44939  -0.44813
 Alpha  occ. eigenvalues --   -0.44506  -0.44149  -0.43946  -0.43677  -0.42693
 Alpha  occ. eigenvalues --   -0.41825  -0.41601  -0.41390  -0.40783  -0.40175
 Alpha  occ. eigenvalues --   -0.40073  -0.39351  -0.38545  -0.37922  -0.37286
 Alpha  occ. eigenvalues --   -0.36907  -0.36358  -0.36101  -0.35592  -0.35057
 Alpha  occ. eigenvalues --   -0.34354  -0.33572  -0.31959  -0.31676  -0.31623
 Alpha  occ. eigenvalues --   -0.30862  -0.28877  -0.28621  -0.28398  -0.28028
 Alpha  occ. eigenvalues --   -0.27781  -0.27587  -0.27420  -0.27332  -0.26667
 Alpha  occ. eigenvalues --   -0.26358  -0.26266
 Alpha virt. eigenvalues --   -0.16594  -0.06883  -0.04889  -0.03756  -0.03376
 Alpha virt. eigenvalues --   -0.03049  -0.02051  -0.00928  -0.00569   0.00115
 Alpha virt. eigenvalues --    0.00282   0.00651   0.00957   0.01390   0.01546

  Beta  occ. eigenvalues -- -256.17266-101.49486-101.48681-101.48572 -30.07950
  Beta  occ. eigenvalues --  -25.94718 -25.94656 -25.94620 -19.19429 -19.14364
  Beta  occ. eigenvalues --  -19.14042 -10.31845 -10.30380 -10.28113 -10.26280
  Beta  occ. eigenvalues --  -10.25969 -10.25912 -10.25545 -10.24987 -10.24678
  Beta  occ. eigenvalues --  -10.24388 -10.24234 -10.22181 -10.21735 -10.21552
  Beta  occ. eigenvalues --  -10.21516 -10.21361 -10.21162 -10.20899 -10.20377
  Beta  occ. eigenvalues --  -10.19666 -10.18793  -9.41187  -9.40395  -9.40280
  Beta  occ. eigenvalues --   -7.16931  -7.16703  -7.16659  -7.16146  -7.16029
  Beta  occ. eigenvalues --   -7.15869  -7.15864  -7.15760  -7.15742  -3.43830
  Beta  occ. eigenvalues --   -2.20159  -2.20074  -2.19994  -1.11231  -1.03343
  Beta  occ. eigenvalues --   -1.02615  -0.92555  -0.88248  -0.87222  -0.83948
  Beta  occ. eigenvalues --   -0.81052  -0.79584  -0.78359  -0.77322  -0.76762
  Beta  occ. eigenvalues --   -0.76188  -0.75063  -0.74648  -0.73186  -0.70151
  Beta  occ. eigenvalues --   -0.66791  -0.66177  -0.64323  -0.63079  -0.61894
  Beta  occ. eigenvalues --   -0.60015  -0.58897  -0.57466  -0.56377  -0.54847
  Beta  occ. eigenvalues --   -0.53558  -0.52845  -0.50817  -0.50564  -0.49852
  Beta  occ. eigenvalues --   -0.49102  -0.48589  -0.48022  -0.47579  -0.46702
  Beta  occ. eigenvalues --   -0.46394  -0.45578  -0.45045  -0.44103  -0.43717
  Beta  occ. eigenvalues --   -0.42166  -0.41672  -0.41480  -0.40783  -0.40362
  Beta  occ. eigenvalues --   -0.40095  -0.39445  -0.38548  -0.37926  -0.37275
  Beta  occ. eigenvalues --   -0.36893  -0.36342  -0.36094  -0.35588  -0.35029
  Beta  occ. eigenvalues --   -0.34854  -0.33892  -0.32827  -0.32357  -0.31625
  Beta  occ. eigenvalues --   -0.31233  -0.30557  -0.30427  -0.30112  -0.29379
  Beta  occ. eigenvalues --   -0.29289  -0.28153  -0.27534  -0.27225  -0.26533
  Beta  occ. eigenvalues --   -0.26382  -0.26260
  Beta virt. eigenvalues --   -0.16681  -0.11174  -0.11114  -0.10116  -0.09885
  Beta virt. eigenvalues --   -0.09269  -0.06854  -0.04824  -0.03741  -0.03366
  Beta virt. eigenvalues --   -0.03030  -0.02043  -0.00922  -0.00550   0.00132

 Mulliken charges and spin densities:
               1          2
     1  C   -0.479249  -0.000516
     2  C    2.938010   0.014603
     3  C   -0.543909  -0.015855
     4  C    0.061431   0.007294
     5  C    0.413981  -0.001070
     6  C    0.082070   0.001190
     7  C   -2.328216   0.007056
     8  C    0.601751   0.007074
     9  C    0.631728   0.000372
    10  C    0.655260  -0.008837
    11  C   -0.451696   0.011374
    12  C   -0.088028   0.000766
    13  O   -0.513043   0.193406
    14  Fe   0.720146   4.034621
    15  Cl  -0.461240   0.268612
    16  Cl  -0.441309   0.263630
    17  Cl  -0.459808   0.200859
    18  H   -0.220664   0.002222
    19  H   -0.168234  -0.000009
    20  H   -0.183658   0.000024
    21  H   -0.185139   0.000202
    22  H   -0.192484  -0.000007
    23  H   -0.156417   0.001621
    24  C    0.929010  -0.000080
    25  H   -0.015531  -0.000699
    26  H   -0.144177  -0.000065
    27  H   -0.048176  -0.000210
    28  H   -0.136588  -0.000082
    29  H   -0.231474   0.000259
    30  O   -0.690223  -0.000297
    31  O   -0.549310  -0.000121
    32  C    0.407345   0.000649
    33  C    0.107485  -0.000101
    34  H   -0.051454  -0.000005
    35  H   -0.025962   0.000035
    36  H   -0.021767  -0.000001
    37  H    0.016785   0.000025
    38  H    0.006460  -0.000002
    39  C    2.540142  -0.000702
    40  C   -0.283154   0.006345
    41  C    0.133594   0.004783
    42  C   -0.083578  -0.003165
    43  H   -0.193701   0.000498
    44  C   -0.204986  -0.003969
    45  H   -0.248004  -0.000027
    46  C    0.273214   0.006906
    47  H   -0.159446   0.000049
    48  H   -0.167391   0.000020
    49  H   -0.151881  -0.000105
    50  H   -0.238514   0.001430
 Sum of Mulliken charges =  -0.00000   5.00000

 Dipole moment (field-independent basis, Debye):
    X=            -12.7246    Y=              8.3025    Z=              3.5686  Tot=             15.6071
 Quadrupole moment (field-independent basis, Debye-Ang):
   XX=           -175.2172   YY=           -204.2153   ZZ=           -193.5613
   XY=             14.1947   XZ=             -0.6644   YZ=             -3.6599

  Exact polarizability: 458.319 -10.123 341.424  16.270  -7.231 308.729
 Approx polarizability: 708.113 -22.147 540.476  48.277   7.177 536.565

 ******    2 imaginary frequencies (negative Signs) ******

                      1                      2                      3
                      A                      A                      A
 Frequencies --    -14.5157               -10.3605                 2.4403
 Red. masses --      5.4183                11.1066                 8.1142
 Frc consts  --      0.0007                 0.0007                 0.0000
 IR Inten    --      4.3197                 1.1668                 0.6191

                      4                      5                      6
                      A                      A                      A
 Frequencies --     12.7349                29.7975                33.8272
 Red. masses --      5.6882                 3.9137                 4.6374
 Frc consts  --      0.0005                 0.0020                 0.0031
 IR Inten    --      0.9508                 0.0802                 0.1320

                      7                      8                      9
                      A                      A                      A
 Frequencies --     44.2715                50.2883                58.1984
 Red. masses --      4.3676                 6.0605                 3.6465
 Frc consts  --      0.0050                 0.0090                 0.0073
 IR Inten    --      0.6358                 0.7567                 0.1023

                     10                     11                     12
                      A                      A                      A
 Frequencies --     70.5459                79.6951                82.7451
 Red. masses --      4.0728                 6.3471                14.2311
 Frc consts  --      0.0119                 0.0238                 0.0574
 IR Inten    --      0.9769                 0.2576                 1.4116

                     13                     14                     15
                      A                      A                      A
 Frequencies --     91.1095                93.3530               115.5784
 Red. masses --      4.5922                 3.5093                10.6993
 Frc consts  --      0.0225                 0.0180                 0.0842
 IR Inten    --      1.5374                 4.0589                 3.3228

                     16                     17                     18
                      A                      A                      A
 Frequencies --    119.1269               124.1517               135.4553
 Red. masses --     16.5393                 7.1872                 2.8747
 Frc consts  --      0.1383                 0.0653                 0.0311
 IR Inten    --      1.3990                 5.5077                 4.4879

                     19                     20                     21
                      A                      A                      A
 Frequencies --    151.6671               155.9834               160.6187
 Red. masses --      4.5658                 4.6705                 4.3335
 Frc consts  --      0.0619                 0.0670                 0.0659
 IR Inten    --     38.1087                 5.1194                 2.6361

                     22                     23                     24
                      A                      A                      A
 Frequencies --    188.1832               223.0088               229.4176
 Red. masses --      4.8823                 5.5731                 3.4626
 Frc consts  --      0.1019                 0.1633                 0.1074
 IR Inten    --     36.8688                14.4938                75.3948

                     25                     26                     27
                      A                      A                      A
 Frequencies --    254.0171               261.1703               278.9652
 Red. masses --      2.5387                 2.3028                 6.1030
 Frc consts  --      0.0965                 0.0925                 0.2798
 IR Inten    --     29.3154                 5.0740                 9.8884

                     28                     29                     30
                      A                      A                      A
 Frequencies --    303.6931               319.8963               328.3944
 Red. masses --      6.9378                 7.3209                11.5062
 Frc consts  --      0.3770                 0.4414                 0.7311
 IR Inten    --     11.1180                 7.4950                30.4964

                     31                     32                     33
                      A                      A                      A
 Frequencies --    346.2599               367.0875               375.2243
 Red. masses --      3.8793                 8.5496                 4.3173
 Frc consts  --      0.2740                 0.6788                 0.3581
 IR Inten    --      6.9719               152.0032                 9.6112

                     34                     35                     36
                      A                      A                      A
 Frequencies --    384.9643               401.0431               405.4941
 Red. masses --      4.2269                41.2092                 3.5983
 Frc consts  --      0.3691                 3.9050                 0.3486
 IR Inten    --    134.5461                87.1369                24.3884

                     37                     38                     39
                      A                      A                      A
 Frequencies --    412.9816               422.7136               468.1308
 Red. masses --      3.0157                 3.3921                 3.9577
 Frc consts  --      0.3030                 0.3571                 0.5110
 IR Inten    --      7.0769                35.7728                 4.1519

                     40                     41                     42
                      A                      A                      A
 Frequencies --    483.8057               500.3681               531.4006
 Red. masses --      3.1912                 3.2613                 4.8378
 Frc consts  --      0.4401                 0.4811                 0.8049
 IR Inten    --      2.1134               101.6473                17.2406

                     43                     44                     45
                      A                      A                      A
 Frequencies --    595.6491               617.9463               621.1252
 Red. masses --      6.0293                 5.5240                 6.3050
 Frc consts  --      1.2604                 1.2428                 1.4332
 IR Inten    --     90.4325               114.6315                60.1159

                     46                     47                     48
                      A                      A                      A
 Frequencies --    631.5737               649.8919               658.4136
 Red. masses --      6.1608                 4.3292                 3.6417
 Frc consts  --      1.4479                 1.0773                 0.9301
 IR Inten    --     36.7150                17.8447                20.9809

                     49                     50                     51
                      A                      A                      A
 Frequencies --    671.0854               703.9874               713.7481
 Red. masses --      1.7101                 1.6927                 3.4663
 Frc consts  --      0.4538                 0.4943                 1.0404
 IR Inten    --     75.6417                38.2837                29.5716

                     52                     53                     54
                      A                      A                      A
 Frequencies --    762.6079               772.6871               786.9817
 Red. masses --      2.2195                 1.7730                 2.0259
 Frc consts  --      0.7605                 0.6237                 0.7393
 IR Inten    --      9.0964                32.0365                 7.2965

                     55                     56                     57
                      A                      A                      A
 Frequencies --    806.1679               816.3471               835.5150
 Red. masses --      1.2909                 2.8143                 1.2922
 Frc consts  --      0.4943                 1.1050                 0.5315
 IR Inten    --     21.8474                83.9273                 0.8346

                     58                     59                     60
                      A                      A                      A
 Frequencies --    846.6275               848.1901               874.2147
 Red. masses --      1.2608                 4.0732                 2.6007
 Frc consts  --      0.5324                 1.7265                 1.1711
 IR Inten    --      0.4550                 5.9330                20.5049

                     61                     62                     63
                      A                      A                      A
 Frequencies --    883.3021               922.8046               937.0909
 Red. masses --      2.6821                 2.0827                 2.4061
 Frc consts  --      1.2330                 1.0449                 1.2449
 IR Inten    --      5.3790                21.8199                 3.0088

                     64                     65                     66
                      A                      A                      A
 Frequencies --    947.9736               954.2796               979.7467
 Red. masses --      2.3667                 1.4765                 1.4103
 Frc consts  --      1.2531                 0.7922                 0.7976
 IR Inten    --      2.7580                 2.6014                 1.1655

                     67                     68                     69
                      A                      A                      A
 Frequencies --    987.1578               991.5031               996.6871
 Red. masses --      2.1734                 2.0689                 2.4798
 Frc consts  --      1.2478                 1.1983                 1.4514
 IR Inten    --     36.6539                15.7853                 4.9159

                     70                     71                     72
                      A                      A                      A
 Frequencies --   1000.7333              1002.0878              1011.3380
 Red. masses --      2.3156                 1.7503                 4.7381
 Frc consts  --      1.3663                 1.0356                 2.8552
 IR Inten    --      3.6673                 0.0900                 0.7290

                     73                     74                     75
                      A                      A                      A
 Frequencies --   1014.2685              1025.8392              1041.2622
 Red. masses --      1.4735                 1.8458                 2.2605
 Frc consts  --      0.8931                 1.1445                 1.4440
 IR Inten    --      1.6438                 3.2668                16.6094

                     76                     77                     78
                      A                      A                      A
 Frequencies --   1044.5554              1051.5194              1054.1834
 Red. masses --      2.7147                 2.1455                 2.2195
 Frc consts  --      1.7452                 1.3977                 1.4532
 IR Inten    --     45.4219                 3.4992                 4.8131

                     79                     80                     81
                      A                      A                      A
 Frequencies --   1092.4484              1107.2884              1109.0864
 Red. masses --      2.1838                 1.5728                 1.6141
 Frc consts  --      1.5356                 1.1361                 1.1698
 IR Inten    --      9.0464                54.2526                51.1647

                     82                     83                     84
                      A                      A                      A
 Frequencies --   1113.7651              1132.9896              1170.1684
 Red. masses --      1.5942                 2.1977                 1.5843
 Frc consts  --      1.1651                 1.6621                 1.2782
 IR Inten    --    255.6037                 6.5101                33.6588

                     85                     86                     87
                      A                      A                      A
 Frequencies --   1171.8349              1172.8052              1181.8826
 Red. masses --      1.7038                 1.1159                 1.0932
 Frc consts  --      1.3785                 0.9043                 0.8997
 IR Inten    --    106.2627                 9.3381                 3.8432

                     88                     89                     90
                      A                      A                      A
 Frequencies --   1196.0675              1198.4237              1201.0772
 Red. masses --      2.2812                 1.1853                 1.2042
 Frc consts  --      1.9227                 1.0030                 1.0235
 IR Inten    --    244.1172                17.7546                20.5788

                     91                     92                     93
                      A                      A                      A
 Frequencies --   1213.1122              1234.6482              1244.9634
 Red. masses --      1.7132                 2.0209                 1.8793
 Frc consts  --      1.4854                 1.8151                 1.7161
 IR Inten    --     95.0551                81.9829                21.9778

                     94                     95                     96
                      A                      A                      A
 Frequencies --   1254.0113              1282.9236              1284.6293
 Red. masses --      1.3585                 1.3584                 1.1522
 Frc consts  --      1.2587                 1.3173                 1.1203
 IR Inten    --    138.1234                22.3390                 6.2826

                     97                     98                     99
                      A                      A                      A
 Frequencies --   1305.4524              1309.3277              1331.2309
 Red. masses --      1.5001                 1.4617                 1.7211
 Frc consts  --      1.5063                 1.4764                 1.7970
 IR Inten    --     59.0198                88.1586                49.5968

                    100                    101                    102
                      A                      A                      A
 Frequencies --   1337.8549              1352.3123              1360.2927
 Red. masses --      2.0355                 1.6070                 3.0426
 Frc consts  --      2.1465                 1.7315                 3.3172
 IR Inten    --    269.6134                76.0440                15.0828

                    103                    104                    105
                      A                      A                      A
 Frequencies --   1363.5321              1370.2254              1384.1974
 Red. masses --      1.6642                 1.6317                 1.4695
 Frc consts  --      1.8230                 1.8050                 1.6589
 IR Inten    --     34.5131                42.5881                58.2144

                    106                    107                    108
                      A                      A                      A
 Frequencies --   1394.0281              1415.8938              1466.8208
 Red. masses --      3.6911                 1.4710                 2.2971
 Frc consts  --      4.2261                 1.7374                 2.9119
 IR Inten    --     25.1872                12.6240                36.8765

                    109                    110                    111
                      A                      A                      A
 Frequencies --   1471.6956              1475.3009              1479.9570
 Red. masses --      2.3176                 1.0435                 1.0784
 Frc consts  --      2.9575                 1.3381                 1.3917
 IR Inten    --     11.0818                 6.2784                10.9318

                    112                    113                    114
                      A                      A                      A
 Frequencies --   1486.4977              1505.4915              1508.4519
 Red. masses --      1.0506                 1.0920                 1.0860
 Frc consts  --      1.3678                 1.4583                 1.4559
 IR Inten    --      2.8429                 4.8056                 4.7042

                    115                    116                    117
                      A                      A                      A
 Frequencies --   1510.9204              1518.5140              1571.5953
 Red. masses --      2.0469                 2.2435                 3.1676
 Frc consts  --      2.7531                 3.0481                 4.6096
 IR Inten    --      8.7644                 3.5670               252.3568

                    118                    119                    120
                      A                      A                      A
 Frequencies --   1601.7019              1626.9606              1641.9735
 Red. masses --      4.5683                 5.8895                 5.6192
 Frc consts  --      6.9051                 9.1851                 8.9260
 IR Inten    --     15.1765                 2.3006               168.5884

                    121                    122                    123
                      A                      A                      A
 Frequencies --   1644.4970              1789.5207              3037.6518
 Red. masses --      5.8305                12.1150                 1.0350
 Frc consts  --      9.2902                22.8585                 5.6267
 IR Inten    --     17.6689               242.9989                16.0821

                    124                    125                    126
                      A                      A                      A
 Frequencies --   3061.4180              3062.1083              3072.5170
 Red. masses --      1.0621                 1.0585                 1.0703
 Frc consts  --      5.8649                 5.8475                 5.9533
 IR Inten    --     13.3008                16.4824                28.7983

                    127                    128                    129
                      A                      A                      A
 Frequencies --   3083.5356              3102.2395              3103.8499
 Red. masses --      1.0791                 1.0922                 1.1060
 Frc consts  --      6.0449                 6.1929                 6.2778
 IR Inten    --     13.1915                16.0801                 1.7703

                    130                    131                    132
                      A                      A                      A
 Frequencies --   3113.6569              3115.6261              3125.1853
 Red. masses --      1.0989                 1.1013                 1.0896
 Frc consts  --      6.2770                 6.2986                 6.2700
 IR Inten    --     48.5871                22.4831                14.6180

                    133                    134                    135
                      A                      A                      A
 Frequencies --   3128.2987              3140.0075              3159.1453
 Red. masses --      1.1067                 1.1011                 1.0855
 Frc consts  --      6.3812                 6.3962                 6.3831
 IR Inten    --     33.3735                 4.9360                 4.8089

                    136                    137                    138
                      A                      A                      A
 Frequencies --   3171.7350              3178.9853              3181.3777
 Red. masses --      1.0879                 1.0869                 1.0928
 Frc consts  --      6.4480                 6.4719                 6.5167
 IR Inten    --      3.1976                 0.9807                15.5082

                    139                    140                    141
                      A                      A                      A
 Frequencies --   3189.0610              3193.1758              3196.0649
 Red. masses --      1.0910                 1.0976                 1.0921
 Frc consts  --      6.5372                 6.5940                 6.5725
 IR Inten    --      8.1388                12.4871                 0.9438

                    142                    143                    144
                      A                      A                      A
 Frequencies --   3205.1903              3214.0150              3214.6609
 Red. masses --      1.0975                 1.0932                 1.0950
 Frc consts  --      6.6428                 6.6532                 6.6669
 IR Inten    --      9.7823                 5.0636                 3.6665

 - Thermochemistry -
 -------------------
 Temperature   298.150 Kelvin.  Pressure   1.00000 Atm.
 Atom     1 has atomic number  6 and mass  12.00000

 Molecular mass:   482.99839 amu.
 Principal axes and moments of inertia in atomic units:
                           1         2         3
     Eigenvalues --  ******************************
           X            0.99740   0.07197   0.00373
           Y           -0.07184   0.99703  -0.02778
           Z           -0.00572   0.02744   0.99961
 This molecule is an asymmetric top.
 Rotational symmetry number  1.
 Warning -- assumption of classical behavior for rotation
           may cause significant error
 Rotational temperatures (Kelvin)      0.00768     0.00600     0.00459
 Rotational constants (GHZ):           0.15995     0.12505     0.09568
    2 imaginary frequencies ignored.
 Zero-point vibrational energy    1009605.0 (Joules/Mol)
                                  241.30139 (Kcal/Mol)
 Warning -- explicit consideration of  42 degrees of freedom as
           vibrations may cause significant error
 Vibrational temperatures:      3.51    18.32    42.87    48.67    63.70
          (Kelvin)             72.35    83.73   101.50   114.66   119.05
                              131.09   134.31   166.29   171.40   178.63
                              194.89   218.22   224.43   231.09   270.75
                              320.86   330.08   365.47   375.77   401.37
                              436.95   460.26   472.49   498.19   528.16
                              539.86   553.88   577.01   583.42   594.19
                              608.19   673.54   696.09   719.92   764.57
                              857.01   889.09   893.66   908.69   935.05
                              947.31   965.54  1012.88  1026.92  1097.22
                             1111.72  1132.29  1159.90  1174.54  1202.12
                             1218.11  1220.36  1257.80  1270.87  1327.71
                             1348.26  1363.92  1373.00  1409.64  1420.30
                             1426.55  1434.01  1439.83  1441.78  1455.09
                             1459.31  1475.95  1498.14  1502.88  1512.90
                             1516.73  1571.79  1593.14  1595.73  1602.46
                             1630.12  1683.61  1686.01  1687.41  1700.47
                             1720.87  1724.26  1728.08  1745.40  1776.38
                             1791.22  1804.24  1845.84  1848.30  1878.25
                             1883.83  1915.34  1924.87  1945.68  1957.16
                             1961.82  1971.45  1991.55  2005.70  2037.16
                             2110.43  2117.44  2122.63  2129.33  2138.74
                             2166.07  2170.33  2173.88  2184.80  2261.18
                             2304.49  2340.83  2362.43  2366.06  2574.72
                             4370.50  4404.70  4405.69  4420.67  4436.52
                             4463.43  4465.75  4479.86  4482.69  4496.44
                             4500.92  4517.77  4545.31  4563.42  4573.85
                             4577.29  4588.35  4594.27  4598.42  4611.55
                             4624.25  4625.18

 Zero-point correction=                           0.384538 (Hartree/Particle)
 Thermal correction to Energy=                    0.412723
 Thermal correction to Enthalpy=                  0.413668
 Thermal correction to Gibbs Free Energy=         0.318008
 Sum of electronic and zero-point Energies=          -3683.601454
 Sum of electronic and thermal Energies=             -3683.573268
 Sum of electronic and thermal Enthalpies=           -3683.572324
 Sum of electronic and thermal Free Energies=        -3683.667984

                     E (Thermal)             CV                S
                      KCal/Mol        Cal/Mol-Kelvin    Cal/Mol-Kelvin
 Total                  258.988            102.811            201.333
 Electronic               0.000              0.000              3.561
 Translational            0.889              2.981             44.412
 Rotational               0.889              2.981             36.372
 Vibrational            257.210             96.849            116.988
 Vibration     1          0.592              1.987             10.814
 Vibration     2          0.593              1.987              7.531
 Vibration     3          0.594              1.984              5.843
 Vibration     4          0.594              1.983              5.591
 Vibration     5          0.595              1.980              5.058
 Vibration     6          0.595              1.977              4.806
 Vibration     7          0.596              1.974              4.517
 Vibration     8          0.598              1.968              4.138
 Vibration     9          0.600              1.963              3.898
 Vibration    10          0.600              1.961              3.825
 Vibration    11          0.602              1.955              3.636
 Vibration    12          0.602              1.954              3.589
 Vibration    13          0.608              1.936              3.173
 Vibration    14          0.609              1.933              3.114
 Vibration    15          0.610              1.929              3.035
 Vibration    16          0.613              1.918              2.867
 Vibration    17          0.619              1.901              2.651
 Vibration    18          0.620              1.896              2.598
 Vibration    19          0.622              1.891              2.542
 Vibration    20          0.633              1.856              2.246
 Vibration    21          0.649              1.806              1.935
 Vibration    22          0.652              1.796              1.883
 Vibration    23          0.665              1.756              1.703
 Vibration    24          0.669              1.744              1.654
 Vibration    25          0.679              1.712              1.540
 Vibration    26          0.695              1.667              1.396
 Vibration    27          0.706              1.635              1.311
 Vibration    28          0.712              1.619              1.268
 Vibration    29          0.724              1.583              1.183
 Vibration    30          0.740              1.540              1.092
 Vibration    31          0.746              1.523              1.058
 Vibration    32          0.754              1.502              1.020
 Vibration    33          0.767              1.468              0.959
 Vibration    34          0.770              1.458              0.943
 Vibration    35          0.777              1.442              0.916
 Vibration    36          0.785              1.421              0.883
 Vibration    37          0.825              1.321              0.743
 Vibration    38          0.840              1.286              0.700
 Vibration    39          0.856              1.249              0.657
 Vibration    40          0.886              1.181              0.584
 Vibration    41          0.953              1.041              0.457
 Vibration    42          0.978              0.994              0.420

 Normal termination of Gaussian 16 at Sat Jul 17 23:53:13 2021.
