 Gaussian 16, Revision A.03,
 Gaussian 16:  ES64L-G16RevA.03 25-Dec-2016

 ----------------------------------------------------------------------
 #p opt=(ts,noeigentest,calcfc) freq=noraman b3lyp jul-cc-pvdz pop=none
  empiricaldispersion=gd3bj
 ----------------------------------------------------------------------

 -----
 title
 -----
 Symbolic Z-matrix:
 Charge =  0 Multiplicity = 6

 SCF Done:  E(UB3LYP) =  -3531.53268725     A.U. after   24 cycles
 Optimization completed.
    -- Stationary point found.
 Normal termination of Gaussian 16 at Wed Jun  2 21:12:50 2021.

 ----------------------------------------------------------------------
 #P Geom=AllCheck Guess=TCheck SCRF=Check GenChk UB3LYP/Jul-CC-pVDZ Fre
 q
 ----------------------------------------------------------------------

 Structure from the checkpoint file:  "/scratch/kwaneu.2863087.bmbhpcps002/Gau-51460.chk"
 -----
 title
 -----
 Charge =  0 Multiplicity = 6

                         Standard orientation:
 ---------------------------------------------------------------------
 Center     Atomic      Atomic             Coordinates (Angstroms)
 Number     Number       Type             X           Y           Z
 ---------------------------------------------------------------------
      1          6           0        2.963799   -1.654066    0.100005
      2          6           0        1.770249   -1.023585   -0.282669
      3          6           0        1.693768   -0.428287   -1.545586
      4          6           0        2.794085   -0.455377   -2.407630
      5          6           0        3.979482   -1.081586   -2.019859
      6          6           0        4.061045   -1.684176   -0.758263
      7          6           0        0.588456   -0.976591    0.661847
      8          6           0        0.878107   -0.381394    2.067836
      9          6           0       -0.225418   -0.941307    2.961224
     10          6           0       -0.271786   -2.428960    2.577255
     11          6           0        0.093680   -2.510335    1.082404
     12          6           0       -0.960187   -2.712701    0.095733
     13          6           0       -0.610122   -3.079536   -1.277251
     14          8           0       -0.519897   -0.370995    0.106339
     15         26           0       -1.702946    0.826349   -0.640470
     16         17           0       -2.326680   -0.276755   -2.516948
     17          6           0       -2.383548   -2.546885    0.420755
     18         17           0       -0.742611    2.739821   -1.174094
     19         17           0       -3.406331    0.949802    0.775933
     20          1           0        0.782243    0.077001   -1.851173
     21          1           0        2.719505    0.022133   -3.385039
     22          1           0        4.837823   -1.100907   -2.692400
     23          1           0        4.983017   -2.174249   -0.443286
     24          1           0        3.046575   -2.124911    1.081318
     25          1           0        1.862426   -0.742968    2.398796
     26          6           0        0.937618    1.138296    2.037026
     27          1           0       -0.020404   -0.785475    4.025928
     28          1           0       -1.167391   -0.430838    2.727700
     29          1           0        0.489586   -2.988709    3.137574
     30          1           0       -1.237292   -2.895194    2.807406
     31          1           0        0.930360   -3.183851    0.877190
     32          1           0       -2.728993   -3.539609    0.772183
     33          1           0       -2.557269   -1.828104    1.226481
     34          1           0       -2.970107   -2.281469   -0.466432
     35          1           0       -1.288203   -3.863884   -1.647080
     36          1           0       -0.870034   -2.187929   -1.892017
     37          1           0        0.438312   -3.350000   -1.418016
     38          8           0        1.896702    1.562163    1.204075
     39          8           0        0.223093    1.856266    2.699169
     40          6           0        2.030566    3.002339    1.038755
     41          6           0        2.902644    3.228171   -0.176830
     42          1           0        1.028477    3.425994    0.914586
     43          1           0        2.474885    3.406406    1.959219
     44          1           0        3.047433    4.307571   -0.325262
     45          1           0        3.887162    2.756348   -0.051905
     46          1           0        2.420260    2.815224   -1.071899
 ---------------------------------------------------------------------

 SCF Done:  E(UB3LYP) =  -3531.53268725     A.U. after    2 cycles

 Isotropic polarizability for W=    0.000000      295.85 Bohr**3.
 End of Minotr F.D. properties file   721 does not exist.

 ******    1 imaginary frequencies (negative Signs) ******

                      1                      2                      3
                      A                      A                      A
 Frequencies --   -270.1943                21.9342                28.4239
 Red. masses --      6.9532                 9.6896                 8.6827
 Frc consts  --      0.2991                 0.0027                 0.0041
 IR Inten    --     33.8922                 0.4136                 0.3043

                      4                      5                      6
                      A                      A                      A
 Frequencies --     40.5799                46.6225                55.7152
 Red. masses --      6.2396                 5.8806                 4.1668
 Frc consts  --      0.0061                 0.0075                 0.0076
 IR Inten    --      1.4850                 0.8104                 0.3011

                      7                      8                      9
                      A                      A                      A
 Frequencies --     56.6230                65.5455                79.7465
 Red. masses --      4.1037                 4.0350                 7.3230
 Frc consts  --      0.0078                 0.0102                 0.0274
 IR Inten    --      0.8073                 0.6072                 0.1508

                     10                     11                     12
                      A                      A                      A
 Frequencies --     85.6753                94.9854               104.2531
 Red. masses --      9.0677                12.4588                 5.6758
 Frc consts  --      0.0392                 0.0662                 0.0363
 IR Inten    --      1.0902                 1.4642                 0.8508

                     13                     14                     15
                      A                      A                      A
 Frequencies --    112.3568               122.2722               124.1582
 Red. masses --      5.8175                16.4824                 4.9567
 Frc consts  --      0.0433                 0.1452                 0.0450
 IR Inten    --      4.7782                 0.8281                 5.8481

                     16                     17                     18
                      A                      A                      A
 Frequencies --    133.3691               141.2002               161.6913
 Red. masses --      2.5392                 1.8005                 2.8399
 Frc consts  --      0.0266                 0.0212                 0.0437
 IR Inten    --      1.0017                 3.6973                 1.9460

                     19                     20                     21
                      A                      A                      A
 Frequencies --    167.7821               180.6072               209.1120
 Red. masses --      1.7741                 2.5461                 2.3393
 Frc consts  --      0.0294                 0.0489                 0.0603
 IR Inten    --      3.9618                 0.7509                 5.3312

                     22                     23                     24
                      A                      A                      A
 Frequencies --    211.8290               225.8885               245.7767
 Red. masses --      2.4141                 1.7812                 4.5852
 Frc consts  --      0.0638                 0.0535                 0.1632
 IR Inten    --      1.9747                 9.4054                 3.9950

                     25                     26                     27
                      A                      A                      A
 Frequencies --    258.2560               272.4962               293.8619
 Red. masses --      1.5217                 4.3941                 5.0510
 Frc consts  --      0.0598                 0.1922                 0.2570
 IR Inten    --      2.1862                 8.3898                 6.5667

                     28                     29                     30
                      A                      A                      A
 Frequencies --    310.4365               316.8768               328.1593
 Red. masses --      2.6140                 4.7483                10.6055
 Frc consts  --      0.1484                 0.2809                 0.6729
 IR Inten    --      6.0969                 5.9358                24.6258

                     31                     32                     33
                      A                      A                      A
 Frequencies --    339.0897               368.2997               372.2996
 Red. masses --      6.8073                19.7156                 3.7580
 Frc consts  --      0.4612                 1.5757                 0.3069
 IR Inten    --     22.7924                69.1695                10.5323

                     34                     35                     36
                      A                      A                      A
 Frequencies --    397.7185               407.1599               412.4185
 Red. masses --     34.5995                 2.8447                 2.9208
 Frc consts  --      3.2246                 0.2779                 0.2927
 IR Inten    --     87.6305                 5.9140                 0.9719

                     37                     38                     39
                      A                      A                      A
 Frequencies --    451.9917               483.3958               489.9003
 Red. masses --      2.9710                 2.8627                 3.4526
 Frc consts  --      0.3576                 0.3941                 0.4882
 IR Inten    --      6.1349                10.1171                 2.3432

                     40                     41                     42
                      A                      A                      A
 Frequencies --    516.9577               543.0058               609.0185
 Red. masses --      3.6971                 2.9881                 4.1013
 Frc consts  --      0.5821                 0.5191                 0.8963
 IR Inten    --      5.9055                 6.4638                29.5670

                     43                     44                     45
                      A                      A                      A
 Frequencies --    631.0314               660.6959               684.6808
 Red. masses --      6.1096                 3.3656                 4.7852
 Frc consts  --      1.4334                 0.8656                 1.3217
 IR Inten    --      1.7416                85.3624                 5.7854

                     46                     47                     48
                      A                      A                      A
 Frequencies --    702.1108               708.8034               766.6053
 Red. masses --      2.5538                 1.8137                 2.4035
 Frc consts  --      0.7417                 0.5369                 0.8322
 IR Inten    --      2.1835               112.7159                11.7144

                     49                     50                     51
                      A                      A                      A
 Frequencies --    769.7003               808.4399               819.3651
 Red. masses --      2.7416                 1.1232                 1.9504
 Frc consts  --      0.9570                 0.4325                 0.7715
 IR Inten    --      1.6024                 1.5590                34.4538

                     52                     53                     54
                      A                      A                      A
 Frequencies --    820.0952               842.7359               859.8879
 Red. masses --      2.4435                 1.2624                 2.6478
 Frc consts  --      0.9683                 0.5282                 1.1535
 IR Inten    --      3.1361                 0.2117                17.3585

                     55                     56                     57
                      A                      A                      A
 Frequencies --    873.6337               900.6175               928.2897
 Red. masses --      2.6716                 2.0253                 1.5906
 Frc consts  --      1.2014                 0.9679                 0.8075
 IR Inten    --     16.8596                 3.1096                 1.6277

                     58                     59                     60
                      A                      A                      A
 Frequencies --    942.4797               957.0533               973.0602
 Red. masses --      3.5992                 2.8098                 1.6315
 Frc consts  --      1.8836                 1.5164                 0.9101
 IR Inten    --      3.0962                 5.0820                 6.8398

                     61                     62                     63
                      A                      A                      A
 Frequencies --    979.8703               999.4587              1003.2780
 Red. masses --      1.3694                 1.3401                 2.4133
 Frc consts  --      0.7747                 0.7887                 1.4312
 IR Inten    --      0.1080                 1.0482                44.6464

                     64                     65                     66
                      A                      A                      A
 Frequencies --   1006.3798              1011.6703              1015.7460
 Red. masses --      1.8216                 3.1721                 2.4481
 Frc consts  --      1.0870                 1.9128                 1.4882
 IR Inten    --      5.9944                 2.4199                37.5194

                     67                     68                     69
                      A                      A                      A
 Frequencies --   1030.8082              1046.2644              1051.7261
 Red. masses --      2.0295                 2.7226                 2.1136
 Frc consts  --      1.2705                 1.7560                 1.3775
 IR Inten    --     24.5341                14.4216                 2.2047

                     70                     71                     72
                      A                      A                      A
 Frequencies --   1069.7764              1105.1928              1107.7258
 Red. masses --      2.1372                 1.9442                 1.5712
 Frc consts  --      1.4411                 1.3992                 1.1359
 IR Inten    --     13.3892                73.5473                 9.8791

                     73                     74                     75
                      A                      A                      A
 Frequencies --   1122.1017              1133.4277              1165.4360
 Red. masses --      1.7557                 2.1708                 2.3178
 Frc consts  --      1.3024                 1.6431                 1.8548
 IR Inten    --     18.1618                 8.8217               102.4326

                     76                     77                     78
                      A                      A                      A
 Frequencies --   1172.6787              1173.5151              1182.0714
 Red. masses --      1.6355                 1.1020                 2.1596
 Frc consts  --      1.3251                 0.8941                 1.7779
 IR Inten    --     20.3224                 0.7296                32.5454

                     79                     80                     81
                      A                      A                      A
 Frequencies --   1199.3639              1201.5337              1234.3533
 Red. masses --      1.1359                 1.5804                 1.9482
 Frc consts  --      0.9627                 1.3443                 1.7489
 IR Inten    --      9.6911                34.3040               134.0425

                     82                     83                     84
                      A                      A                      A
 Frequencies --   1247.2492              1260.3110              1289.0942
 Red. masses --      1.9164                 2.0344                 1.1162
 Frc consts  --      1.7565                 1.9039                 1.0928
 IR Inten    --    124.4931                90.8715                 1.0083

                     85                     86                     87
                      A                      A                      A
 Frequencies --   1301.0944              1309.0799              1315.2183
 Red. masses --      1.5980                 1.4301                 1.6710
 Frc consts  --      1.5938                 1.4440                 1.7031
 IR Inten    --    151.6820                34.9588                78.2105

                     88                     89                     90
                      A                      A                      A
 Frequencies --   1326.3608              1333.1956              1354.7398
 Red. masses --      1.2840                 1.5102                 1.2140
 Frc consts  --      1.3309                 1.5815                 1.3127
 IR Inten    --      6.4622                 5.5480                 6.7008

                     91                     92                     93
                      A                      A                      A
 Frequencies --   1362.6541              1368.9760              1383.3544
 Red. masses --      4.2960                 1.4371                 1.4588
 Frc consts  --      4.6998                 1.5868                 1.6448
 IR Inten    --      1.2363                31.4667                67.9060

                     94                     95                     96
                      A                      A                      A
 Frequencies --   1394.9336              1399.0572              1417.3285
 Red. masses --      1.2244                 2.1409                 1.4990
 Frc consts  --      1.4037                 2.4690                 1.7742
 IR Inten    --     22.3853                47.2130                 7.8167

                     97                     98                     99
                      A                      A                      A
 Frequencies --   1419.4610              1447.1276              1472.2695
 Red. masses --      1.0499                 1.3070                 2.2851
 Frc consts  --      1.2464                 1.6126                 2.9183
 IR Inten    --      7.6278                 2.9730                13.5443

                    100                    101                    102
                      A                      A                      A
 Frequencies --   1474.4953              1482.3850              1484.0860
 Red. masses --      1.0431                 1.1569                 1.0535
 Frc consts  --      1.3361                 1.4978                 1.3671
 IR Inten    --      5.5119                17.0768                 2.6138

                    103                    104                    105
                      A                      A                      A
 Frequencies --   1490.1300              1501.6963              1504.0035
 Red. masses --      1.1593                 1.3600                 1.1001
 Frc consts  --      1.5167                 1.8069                 1.4662
 IR Inten    --      4.9122                20.6471                 8.5235

                    106                    107                    108
                      A                      A                      A
 Frequencies --   1505.1434              1520.3297              1628.1551
 Red. masses --      1.1657                 2.2670                 5.9206
 Frc consts  --      1.5559                 3.0872                 9.2472
 IR Inten    --      4.1020                 3.0390                 0.3144

                    109                    110                    111
                      A                      A                      A
 Frequencies --   1647.2607              1784.3596              2892.1847
 Red. masses --      5.8750                12.2631                 1.0625
 Frc consts  --      9.3926                23.0046                 5.2366
 IR Inten    --      1.2147               235.9658               138.3412

                    112                    113                    114
                      A                      A                      A
 Frequencies --   2985.3113              3039.5719              3055.1253
 Red. masses --      1.0551                 1.0353                 1.0810
 Frc consts  --      5.5402                 5.6357                 5.9449
 IR Inten    --     16.2307                16.0793                 9.3708

                    115                    116                    117
                      A                      A                      A
 Frequencies --   3056.2696              3060.2723              3061.0495
 Red. masses --      1.0666                 1.0647                 1.0701
 Frc consts  --      5.8699                 5.8747                 5.9076
 IR Inten    --     28.4648                31.2315                 3.4167

                    118                    119                    120
                      A                      A                      A
 Frequencies --   3080.0803              3101.9264              3104.9150
 Red. masses --      1.0623                 1.0761                 1.0959
 Frc consts  --      5.9379                 6.1008                 6.2247
 IR Inten    --      9.3120                 5.2710                10.6964

                    121                    122                    123
                      A                      A                      A
 Frequencies --   3111.4153              3116.0474              3126.6399
 Red. masses --      1.1023                 1.0875                 1.0998
 Frc consts  --      6.2874                 6.2213                 6.3345
 IR Inten    --     14.5672                11.4093                15.6109

                    124                    125                    126
                      A                      A                      A
 Frequencies --   3133.7221              3143.0406              3157.0890
 Red. masses --      1.1064                 1.1042                 1.0868
 Frc consts  --      6.4014                 6.4271                 6.3820
 IR Inten    --     13.4663                15.7232                 7.1936

                    127                    128                    129
                      A                      A                      A
 Frequencies --   3170.1413              3174.4133              3177.2586
 Red. masses --      1.1053                 1.0875                 1.1010
 Frc consts  --      6.5449                 6.4565                 6.5486
 IR Inten    --      0.7405                 1.8766                 5.2288

                    130                    131                    132
                      A                      A                      A
 Frequencies --   3185.1468              3196.7187              3232.7396
 Red. masses --      1.0928                 1.0980                 1.0916
 Frc consts  --      6.5319                 6.6110                 6.7213
 IR Inten    --     13.5137                15.7551                 2.2286

 - Thermochemistry -
 -------------------
 Temperature   298.150 Kelvin.  Pressure   1.00000 Atm.
 Atom     1 has atomic number  6 and mass  12.00000

 Molecular mass:   434.99839 amu.
 Principal axes and moments of inertia in atomic units:
                           1         2         3
     Eigenvalues --  8600.45757********************
           X            0.99443   0.09967  -0.03439
           Y           -0.10041   0.99474  -0.02043
           Z            0.03218   0.02377   0.99920
 This molecule is an asymmetric top.
 Rotational symmetry number  1.
 Warning -- assumption of classical behavior for rotation
           may cause significant error
 Rotational temperatures (Kelvin)      0.01007     0.00826     0.00742
 Rotational constants (GHZ):           0.20984     0.17217     0.15452
    1 imaginary frequencies ignored.
 Zero-point vibrational energy     941065.0 (Joules/Mol)
                                  224.91993 (Kcal/Mol)
 Warning -- explicit consideration of  41 degrees of freedom as
           vibrations may cause significant error
 Vibrational temperatures:     31.56    40.90    58.39    67.08    80.16
          (Kelvin)             81.47    94.31   114.74   123.27   136.66
                              150.00   161.66   175.92   178.64   191.89
                              203.16   232.64   241.40   259.85   300.87
                              304.77   325.00   353.62   371.57   392.06
                              422.80   446.65   455.92   472.15   487.87
                              529.90   535.66   572.23   585.81   593.38
                              650.32   695.50   704.86   743.79   781.26
                              876.24   907.91   950.59   985.10  1010.18
                             1019.81  1102.97  1107.43  1163.16  1178.88
                             1179.93  1212.51  1237.19  1256.96  1295.79
                             1335.60  1356.02  1376.99  1400.02  1409.81
                             1438.00  1443.49  1447.96  1455.57  1461.43
                             1483.10  1505.34  1513.20  1539.17  1590.13
                             1593.77  1614.45  1630.75  1676.80  1687.22
                             1688.43  1700.74  1725.62  1728.74  1775.96
                             1794.51  1813.31  1854.72  1871.98  1883.47
                             1892.31  1908.34  1918.17  1949.17  1960.56
                             1969.65  1990.34  2007.00  2012.93  2039.22
                             2042.29  2082.09  2118.27  2121.47  2132.82
                             2135.27  2143.96  2160.61  2163.93  2165.57
                             2187.42  2342.55  2370.04  2567.30  4161.21
                             4295.20  4373.27  4395.64  4397.29  4403.05
                             4404.17  4431.55  4462.98  4467.28  4476.63
                             4483.30  4498.54  4508.73  4522.13  4542.35
                             4561.13  4567.27  4571.37  4582.72  4599.37
                             4651.19

 Zero-point correction=                           0.358433 (Hartree/Particle)
 Thermal correction to Energy=                    0.385557
 Thermal correction to Enthalpy=                  0.386501
 Thermal correction to Gibbs Free Energy=         0.297157
 Sum of electronic and zero-point Energies=          -3531.174255
 Sum of electronic and thermal Energies=             -3531.147130
 Sum of electronic and thermal Enthalpies=           -3531.146186
 Sum of electronic and thermal Free Energies=        -3531.235530

                     E (Thermal)             CV                S
                      KCal/Mol        Cal/Mol-Kelvin    Cal/Mol-Kelvin
 Total                  241.941             97.184            188.040
 Electronic               0.000              0.000              3.561
 Translational            0.889              2.981             44.100
 Rotational               0.889              2.981             35.308
 Vibrational            240.163             91.223            105.071
 Vibration     1          0.593              1.985              6.451
 Vibration     2          0.593              1.984              5.936
 Vibration     3          0.594              1.981              5.231
 Vibration     4          0.595              1.979              4.956
 Vibration     5          0.596              1.975              4.603
 Vibration     6          0.596              1.975              4.572
 Vibration     7          0.597              1.971              4.283
 Vibration     8          0.600              1.963              3.897
 Vibration     9          0.601              1.959              3.756
 Vibration    10          0.603              1.953              3.555
 Vibration    11          0.605              1.946              3.373
 Vibration    12          0.607              1.939              3.228
 Vibration    13          0.610              1.931              3.064
 Vibration    14          0.610              1.929              3.035
 Vibration    15          0.613              1.920              2.897
 Vibration    16          0.615              1.912              2.788
 Vibration    17          0.622              1.889              2.530
 Vibration    18          0.625              1.882              2.460
 Vibration    19          0.630              1.866              2.322
 Vibration    20          0.642              1.827              2.051
 Vibration    21          0.643              1.823              2.028
 Vibration    22          0.650              1.802              1.911
 Vibration    23          0.660              1.770              1.761
 Vibration    24          0.667              1.749              1.674
 Vibration    25          0.675              1.724              1.580
 Vibration    26          0.689              1.685              1.452
 Vibration    27          0.699              1.654              1.360
 Vibration    28          0.704              1.641              1.326
 Vibration    29          0.711              1.619              1.269
 Vibration    30          0.719              1.597              1.216
 Vibration    31          0.741              1.537              1.087
 Vibration    32          0.744              1.529              1.070
 Vibration    33          0.764              1.475              0.971
 Vibration    34          0.772              1.455              0.937
 Vibration    35          0.776              1.443              0.918
 Vibration    36          0.811              1.356              0.790
 Vibration    37          0.840              1.287              0.701
 Vibration    38          0.846              1.272              0.684
 Vibration    39          0.872              1.212              0.617
 Vibration    40          0.898              1.155              0.559
 Vibration    41          0.968              1.013              0.434

 Optimization completed.
    -- Stationary point found.
 Normal termination of Gaussian 16 at Thu Jun  3 01:47:57 2021.
