 Gaussian 16, Revision A.03,
 Gaussian 16:  ES64L-G16RevA.03 25-Dec-2016

 ----------------------------------------------------------------------
 #p b3lyp jul-cc-pvdz empiricaldispersion=gd3bj opt freq=noraman pop=no
 ne
 ----------------------------------------------------------------------

 -----
 title
 -----
 Symbolic Z-matrix:
 Charge =  0 Multiplicity = 6

 SCF Done:  E(UB3LYP) =  -3531.56535640     A.U. after   24 cycles
 Optimization completed.
    -- Stationary point found.
 Normal termination of Gaussian 16 at Fri Jun  4 17:10:45 2021.

 ----------------------------------------------------------------------
 #P Geom=AllCheck Guess=TCheck SCRF=Check GenChk UB3LYP/Jul-CC-pVDZ Fre
 q
 ----------------------------------------------------------------------

 Structure from the checkpoint file:  "/scratch/kwaneu.2863311.bmbhpcps002/Gau-9205.chk"
 -----
 title
 -----
 Charge =  0 Multiplicity = 6

                         Standard orientation:
 ---------------------------------------------------------------------
 Center     Atomic      Atomic             Coordinates (Angstroms)
 Number     Number       Type             X           Y           Z
 ---------------------------------------------------------------------
      1          6           0       -3.074653    0.939542   -1.292021
      2          6           0       -2.217067    0.250405   -0.421250
      3          6           0       -2.480547   -1.100405   -0.158018
      4          6           0       -3.557552   -1.749689   -0.763167
      5          6           0       -4.405248   -1.055868   -1.628642
      6          6           0       -4.160789    0.295034   -1.886678
      7          6           0       -1.086575    0.975175    0.269385
      8          6           0       -0.486922    2.170346   -0.532969
      9          6           0       -1.081507    3.401008    0.183894
     10          6           0       -1.083773    3.032978    1.681819
     11          6           0       -1.366283    1.524612    1.700032
     12          6           0       -0.327672    0.513185    2.255096
     13          6           0       -0.945401   -0.594084    3.082714
     14          8           0       -0.074611    0.037283    0.822529
     15         26           0        0.973289   -1.514084    0.072270
     16         17           0        0.488768   -1.625658   -2.049753
     17          6           0        0.961142    1.024647    2.854148
     18         17           0        0.282072   -3.294471    1.169365
     19         17           0        3.065819   -1.084161    0.576532
     20          1           0       -1.833325   -1.673452    0.499001
     21          1           0       -3.723279   -2.808027   -0.560414
     22          1           0       -5.245338   -1.563836   -2.103304
     23          1           0       -4.811042    0.851512   -2.562491
     24          1           0       -2.908862    1.991313   -1.518031
     25          1           0       -0.788402    2.095461   -1.581424
     26          6           0        1.035274    2.233675   -0.531597
     27          1           0       -0.508111    4.310545   -0.025912
     28          1           0       -2.109826    3.560149   -0.168267
     29          1           0       -0.106217    3.262813    2.115830
     30          1           0       -1.839335    3.595473    2.243084
     31          1           0       -2.376837    1.292088    2.048618
     32          1           0        1.451345    1.766819    2.219798
     33          1           0        0.740496    1.477157    3.831169
     34          1           0        1.653281    0.188584    3.013870
     35          1           0       -0.236335   -1.410963    3.254268
     36          1           0       -1.225411   -0.164960    4.055547
     37          1           0       -1.849079   -0.998901    2.616014
     38          8           0        1.551112    1.525471   -1.539502
     39          8           0        1.696564    2.886884    0.251517
     40          6           0        3.001157    1.595387   -1.699267
     41          6           0        3.380528    0.675547   -2.837650
     42          1           0        3.258511    2.644189   -1.900113
     43          1           0        3.462354    1.297340   -0.752128
     44          1           0        4.465784    0.738586   -3.001029
     45          1           0        3.121789   -0.363472   -2.602509
     46          1           0        2.869932    0.964611   -3.766369
 ---------------------------------------------------------------------

 SCF Done:  E(UB3LYP) =  -3531.56535640     A.U. after    1 cycles

 Isotropic polarizability for W=    0.000000      280.77 Bohr**3.
 End of Minotr F.D. properties file   721 does not exist.

                      1                      2                      3
                      A                      A                      A
 Frequencies --     26.5673                44.1353                51.2847
 Red. masses --      5.6584                 5.7512                 6.4179
 Frc consts  --      0.0024                 0.0066                 0.0099
 IR Inten    --      0.3992                 0.0872                 0.1896

                      4                      5                      6
                      A                      A                      A
 Frequencies --     54.7178                65.4472                72.1420
 Red. masses --      6.4459                 5.9251                 5.4891
 Frc consts  --      0.0114                 0.0150                 0.0168
 IR Inten    --      0.0642                 0.3143                 0.3797

                      7                      8                      9
                      A                      A                      A
 Frequencies --     84.6494                87.4168                98.4411
 Red. masses --     10.7965                 9.7495                 4.7866
 Frc consts  --      0.0456                 0.0439                 0.0273
 IR Inten    --      0.2779                 0.5126                 0.0960

                     10                     11                     12
                      A                      A                      A
 Frequencies --    106.7573               115.3371               116.2687
 Red. masses --      7.4080                 4.4722                 9.2684
 Frc consts  --      0.0497                 0.0351                 0.0738
 IR Inten    --      3.5220                 2.7993                 1.6962

                     13                     14                     15
                      A                      A                      A
 Frequencies --    119.8096               126.0410               151.4868
 Red. masses --     12.0341                 4.8390                 3.3984
 Frc consts  --      0.1018                 0.0453                 0.0459
 IR Inten    --      1.8598                 2.2226                 1.6540

                     16                     17                     18
                      A                      A                      A
 Frequencies --    171.9752               176.1081               193.2624
 Red. masses --      2.1633                 3.6137                 3.2593
 Frc consts  --      0.0377                 0.0660                 0.0717
 IR Inten    --      6.5524                 3.2628                 0.9663

                     19                     20                     21
                      A                      A                      A
 Frequencies --    207.0818               215.9166               234.6067
 Red. masses --      5.0226                 1.4120                 3.0891
 Frc consts  --      0.1269                 0.0388                 0.1002
 IR Inten    --      7.2594                 0.6690                 4.1132

                     22                     23                     24
                      A                      A                      A
 Frequencies --    251.0237               262.1310               278.1181
 Red. masses --      1.8919                 1.5364                 1.5757
 Frc consts  --      0.0702                 0.0622                 0.0718
 IR Inten    --      0.1802                 1.5043                 3.6284

                     25                     26                     27
                      A                      A                      A
 Frequencies --    284.1403               309.9052               326.1944
 Red. masses --      2.3777                 3.2776                 2.8866
 Frc consts  --      0.1131                 0.1855                 0.1810
 IR Inten    --      0.1569                 0.6704                 1.1264

                     28                     29                     30
                      A                      A                      A
 Frequencies --    346.8287               349.9539               360.7556
 Red. masses --      4.0661                10.5418                 4.2984
 Frc consts  --      0.2882                 0.7607                 0.3296
 IR Inten    --      3.3541                13.6407                33.3075

                     31                     32                     33
                      A                      A                      A
 Frequencies --    387.1130               399.5367               414.8667
 Red. masses --      3.0646                33.3872                 3.0544
 Frc consts  --      0.2706                 3.1401                 0.3097
 IR Inten    --      1.7804                83.8631                 5.1221

                     34                     35                     36
                      A                      A                      A
 Frequencies --    420.4736               422.2699               457.6509
 Red. masses --      5.0017                 9.1292                 3.9942
 Frc consts  --      0.5210                 0.9591                 0.4929
 IR Inten    --     22.3748                47.7379                 7.8034

                     37                     38                     39
                      A                      A                      A
 Frequencies --    483.0133               502.4869               550.6012
 Red. masses --      4.1352                 3.2316                 2.7533
 Frc consts  --      0.5684                 0.4807                 0.4918
 IR Inten    --     11.4171                 0.4340                 4.3193

                     40                     41                     42
                      A                      A                      A
 Frequencies --    580.5492               631.5746               657.3363
 Red. masses --      2.9599                 6.2772                 3.5722
 Frc consts  --      0.5878                 1.4752                 0.9094
 IR Inten    --      4.7236                 0.2269                 2.4361

                     43                     44                     45
                      A                      A                      A
 Frequencies --    674.5498               702.8967               709.4601
 Red. masses --      6.0640                 3.4823                 1.9769
 Frc consts  --      1.6257                 1.0137                 0.5862
 IR Inten    --     15.6064                18.9393                43.4058

                     46                     47                     48
                      A                      A                      A
 Frequencies --    734.6958               761.0028               773.7464
 Red. masses --      4.1221                 2.2380                 5.3222
 Frc consts  --      1.3109                 0.7636                 1.8773
 IR Inten    --     65.6762                32.4676                30.7153

                     49                     50                     51
                      A                      A                      A
 Frequencies --    808.5663               816.4458               840.0978
 Red. masses --      1.1972                 2.6803                 2.2034
 Frc consts  --      0.4612                 1.0527                 0.9162
 IR Inten    --      5.6343                 3.9233                 8.9379

                     52                     53                     54
                      A                      A                      A
 Frequencies --    844.3544               860.3797               881.9783
 Red. masses --      1.2633                 3.6304                 3.6291
 Frc consts  --      0.5306                 1.5834                 1.6633
 IR Inten    --      0.7802                52.9933                16.5386

                     55                     56                     57
                      A                      A                      A
 Frequencies --    906.7921               922.5370               927.2263
 Red. masses --      3.4510                 2.5036                 1.4620
 Frc consts  --      1.6719                 1.2554                 0.7406
 IR Inten    --      3.1323                16.7798                 2.6179

                     58                     59                     60
                      A                      A                      A
 Frequencies --    947.8242               965.8999               982.2365
 Red. masses --      1.4276                 2.8564                 2.6251
 Frc consts  --      0.7556                 1.5701                 1.4922
 IR Inten    --      1.0816                35.3405                 6.6767

                     61                     62                     63
                      A                      A                      A
 Frequencies --    982.9598               995.6082              1003.2101
 Red. masses --      1.3504                 2.5288                 1.4306
 Frc consts  --      0.7688                 1.4768                 0.8483
 IR Inten    --      0.7170                14.3659                 0.7848

                     64                     65                     66
                      A                      A                      A
 Frequencies --   1010.4255              1011.6158              1026.4714
 Red. masses --      3.0718                 1.5233                 2.2535
 Frc consts  --      1.8478                 0.9184                 1.3989
 IR Inten    --      0.2234                 5.2677                31.0559

                     67                     68                     69
                      A                      A                      A
 Frequencies --   1050.1585              1057.4276              1066.8187
 Red. masses --      2.5887                 2.1436                 1.8871
 Frc consts  --      1.6820                 1.4122                 1.2654
 IR Inten    --     25.7543                 5.0628                 8.2959

                     70                     71                     72
                      A                      A                      A
 Frequencies --   1081.8704              1109.0931              1128.7689
 Red. masses --      2.6134                 1.8927                 2.2367
 Frc consts  --      1.8022                 1.3718                 1.6791
 IR Inten    --     15.3054                 7.2084                 6.4572

                     73                     74                     75
                      A                      A                      A
 Frequencies --   1136.6073              1154.4238              1166.3044
 Red. masses --      2.1805                 1.9526                 1.5118
 Frc consts  --      1.6597                 1.5332                 1.2117
 IR Inten    --      8.5747                18.3901                23.1428

                     76                     77                     78
                      A                      A                      A
 Frequencies --   1170.9647              1176.6609              1186.7963
 Red. masses --      1.5503                 1.0885                 1.9505
 Frc consts  --      1.2524                 0.8880                 1.6186
 IR Inten    --      5.8780                 0.2009                11.3429

                     79                     80                     81
                      A                      A                      A
 Frequencies --   1208.6686              1218.9619              1229.7596
 Red. masses --      1.2089                 1.3070                 2.7893
 Frc consts  --      1.0405                 1.1442                 2.4853
 IR Inten    --      1.4035                 0.5710               266.1585

                     82                     83                     84
                      A                      A                      A
 Frequencies --   1249.7625              1264.8489              1287.1986
 Red. masses --      1.7378                 1.9647                 2.4620
 Frc consts  --      1.5992                 1.8519                 2.4034
 IR Inten    --     31.2438                11.1136                32.0741

                     85                     86                     87
                      A                      A                      A
 Frequencies --   1290.0288              1305.5318              1321.9432
 Red. masses --      1.1505                 1.7522                 1.5875
 Frc consts  --      1.1281                 1.7596                 1.6346
 IR Inten    --      5.7291                20.6297                 1.3314

                     88                     89                     90
                      A                      A                      A
 Frequencies --   1331.4755              1340.3536              1361.4209
 Red. masses --      1.5519                 1.8915                 2.2550
 Frc consts  --      1.6210                 2.0021                 2.4625
 IR Inten    --     10.5675                 8.7887                 7.1521

                     91                     92                     93
                      A                      A                      A
 Frequencies --   1367.9329              1374.1952              1394.2633
 Red. masses --      1.4441                 1.5994                 1.5484
 Frc consts  --      1.5921                 1.7795                 1.7735
 IR Inten    --     45.4877                 4.0861                81.0122

                     94                     95                     96
                      A                      A                      A
 Frequencies --   1410.3487              1421.7965              1423.6659
 Red. masses --      1.3559                 1.5264                 1.2333
 Frc consts  --      1.5891                 1.8180                 1.4728
 IR Inten    --     18.8896                 9.9782                25.2732

                     97                     98                     99
                      A                      A                      A
 Frequencies --   1471.3306              1471.9755              1474.2831
 Red. masses --      1.6986                 1.1848                 1.0389
 Frc consts  --      2.1665                 1.5125                 1.3305
 IR Inten    --      3.3029                 2.8195                 3.2272

                    100                    101                    102
                      A                      A                      A
 Frequencies --   1476.6406              1482.8196              1484.7997
 Red. masses --      1.1475                 1.0609                 1.0536
 Frc consts  --      1.4742                 1.3743                 1.3686
 IR Inten    --      8.2303                 4.3673                 0.6671

                    103                    104                    105
                      A                      A                      A
 Frequencies --   1492.7974              1497.5574              1503.3243
 Red. masses --      1.0813                 1.0910                 1.0851
 Frc consts  --      1.4197                 1.4416                 1.4448
 IR Inten    --     10.1873                10.4499                11.4412

                    106                    107                    108
                      A                      A                      A
 Frequencies --   1514.6137              1527.1287              1629.3160
 Red. masses --      1.0575                 2.2452                 5.7344
 Frc consts  --      1.4294                 3.0850                 8.9691
 IR Inten    --      5.3967                 6.0478                 0.4362

                    109                    110                    111
                      A                      A                      A
 Frequencies --   1651.4714              1762.8977              3043.1319
 Red. masses --      5.8698                10.9575                 1.0397
 Frc consts  --      9.4322                20.0639                 5.6727
 IR Inten    --      0.9551               195.3498                 1.1567

                    112                    113                    114
                      A                      A                      A
 Frequencies --   3043.7616              3049.8152              3057.4110
 Red. masses --      1.0365                 1.0396                 1.0658
 Frc consts  --      5.6575                 5.6970                 5.8700
 IR Inten    --     18.8933                18.7481                22.9129

                    115                    116                    117
                      A                      A                      A
 Frequencies --   3066.5525              3079.8122              3107.5845
 Red. masses --      1.0641                 1.0658                 1.0873
 Frc consts  --      5.8958                 5.9561                 6.1865
 IR Inten    --     25.6975                31.6348                12.4623

                    118                    119                    120
                      A                      A                      A
 Frequencies --   3113.5315              3118.5719              3122.0244
 Red. masses --      1.1023                 1.0988                 1.0991
 Frc consts  --      6.2961                 6.2964                 6.3121
 IR Inten    --     13.0022                 3.0680                11.8224

                    121                    122                    123
                      A                      A                      A
 Frequencies --   3122.8204              3126.7815              3134.5416
 Red. masses --      1.0858                 1.0967                 1.0989
 Frc consts  --      6.2387                 6.3174                 6.3616
 IR Inten    --      2.8716                13.5745                 4.3622

                    124                    125                    126
                      A                      A                      A
 Frequencies --   3141.9921              3148.5277              3155.6590
 Red. masses --      1.1014                 1.1043                 1.1041
 Frc consts  --      6.4060                 6.4501                 6.4777
 IR Inten    --     12.2697                17.9199                 9.1081

                    127                    128                    129
                      A                      A                      A
 Frequencies --   3170.2750              3172.9920              3183.9605
 Red. masses --      1.1005                 1.0852                 1.0898
 Frc consts  --      6.5167                 6.4372                 6.5092
 IR Inten    --      0.4042                 0.3234                 7.0748

                    130                    131                    132
                      A                      A                      A
 Frequencies --   3195.5554              3203.0993              3228.4983
 Red. masses --      1.0941                 1.0958                 1.0916
 Frc consts  --      6.5823                 6.6238                 6.7038
 IR Inten    --     17.9111                 8.6891                 2.2729

 - Thermochemistry -
 -------------------
 Temperature   298.150 Kelvin.  Pressure   1.00000 Atm.
 Atom     1 has atomic number  6 and mass  12.00000

 Molecular mass:   434.99839 amu.
 Principal axes and moments of inertia in atomic units:
                           1         2         3
     Eigenvalues --  8614.440939990.40450**********
           X            0.99769   0.06364  -0.02380
           Y           -0.06340   0.99793   0.01067
           Z            0.02443  -0.00914   0.99966
 This molecule is an asymmetric top.
 Rotational symmetry number  1.
 Warning -- assumption of classical behavior for rotation
           may cause significant error
 Rotational temperatures (Kelvin)      0.01005     0.00867     0.00741
 Rotational constants (GHZ):           0.20950     0.18065     0.15440
 Zero-point vibrational energy     955833.4 (Joules/Mol)
                                  228.44966 (Kcal/Mol)
 Warning -- explicit consideration of  40 degrees of freedom as
           vibrations may cause significant error
 Vibrational temperatures:     38.22    63.50    73.79    78.73    94.16
          (Kelvin)            103.80   121.79   125.77   141.63   153.60
                              165.94   167.28   172.38   181.34   217.96
                              247.43   253.38   278.06   297.94   310.66
                              337.55   361.17   377.15   400.15   408.81
                              445.88   469.32   499.01   503.51   519.05
                              556.97   574.84   596.90   604.97   607.55
                              658.46   694.95   722.97   792.19   835.28
                              908.69   945.76   970.53  1011.31  1020.75
                             1057.06  1094.91  1113.25  1163.35  1174.68
                             1208.71  1214.84  1237.89  1268.97  1304.67
                             1327.32  1334.07  1363.71  1389.71  1413.22
                             1414.26  1432.46  1443.40  1453.78  1455.49
                             1476.86  1510.94  1521.40  1534.91  1556.57
                             1595.74  1624.05  1635.32  1660.96  1678.05
                             1684.76  1692.95  1707.54  1739.00  1753.81
                             1769.35  1798.13  1819.84  1851.99  1856.06
                             1878.37  1901.98  1915.70  1928.47  1958.78
                             1968.15  1977.16  2006.03  2029.18  2045.65
                             2048.34  2116.92  2117.84  2121.16  2124.56
                             2133.45  2136.30  2147.80  2154.65  2162.95
                             2179.19  2197.20  2344.22  2376.10  2536.42
                             4378.39  4379.29  4388.00  4398.93  4412.09
                             4431.16  4471.12  4479.68  4486.93  4491.90
                             4493.04  4498.74  4509.91  4520.63  4530.03
                             4540.29  4561.32  4565.23  4581.01  4597.69
                             4608.55  4645.09

 Zero-point correction=                           0.364058 (Hartree/Particle)
 Thermal correction to Energy=                    0.390281
 Thermal correction to Enthalpy=                  0.391226
 Thermal correction to Gibbs Free Energy=         0.305440
 Sum of electronic and zero-point Energies=          -3531.201299
 Sum of electronic and thermal Energies=             -3531.175075
 Sum of electronic and thermal Enthalpies=           -3531.174131
 Sum of electronic and thermal Free Energies=        -3531.259916

                     E (Thermal)             CV                S
                      KCal/Mol        Cal/Mol-Kelvin    Cal/Mol-Kelvin
 Total                  244.905             96.190            180.551
 Electronic               0.000              0.000              3.561
 Translational            0.889              2.981             44.100
 Rotational               0.889              2.981             35.263
 Vibrational            243.128             90.228             97.627
 Vibration     1          0.593              1.984              6.071
 Vibration     2          0.595              1.980              5.064
 Vibration     3          0.596              1.977              4.767
 Vibration     4          0.596              1.976              4.639
 Vibration     5          0.597              1.971              4.286
 Vibration     6          0.598              1.967              4.094
 Vibration     7          0.601              1.960              3.780
 Vibration     8          0.601              1.958              3.717
 Vibration     9          0.604              1.950              3.485
 Vibration    10          0.606              1.944              3.327
 Vibration    11          0.608              1.937              3.177
 Vibration    12          0.608              1.936              3.161
 Vibration    13          0.609              1.933              3.103
 Vibration    14          0.611              1.927              3.006
 Vibration    15          0.619              1.901              2.653
 Vibration    16          0.626              1.877              2.414
 Vibration    17          0.628              1.872              2.369
 Vibration    18          0.635              1.849              2.196
 Vibration    19          0.641              1.830              2.069
 Vibration    20          0.645              1.817              1.993
 Vibration    21          0.654              1.788              1.843
 Vibration    22          0.663              1.761              1.723
 Vibration    23          0.669              1.742              1.648
 Vibration    24          0.679              1.714              1.545
 Vibration    25          0.683              1.703              1.509
 Vibration    26          0.699              1.655              1.363
 Vibration    27          0.710              1.623              1.279
 Vibration    28          0.725              1.582              1.181
 Vibration    29          0.727              1.575              1.166
 Vibration    30          0.735              1.553              1.119
 Vibration    31          0.756              1.498              1.011
 Vibration    32          0.766              1.471              0.964
 Vibration    33          0.778              1.438              0.910
 Vibration    34          0.783              1.426              0.890
 Vibration    35          0.785              1.422              0.884
 Vibration    36          0.816              1.344              0.773
 Vibration    37          0.839              1.288              0.702
 Vibration    38          0.858              1.244              0.652
 Vibration    39          0.906              1.138              0.543
 Vibration    40          0.937              1.073              0.484

 Optimization completed.
    -- Stationary point found.
 Normal termination of Gaussian 16 at Fri Jun  4 21:12:12 2021.
