 Gaussian 16, Revision A.03,
 Gaussian 16:  ES64L-G16RevA.03 25-Dec-2016

 ----------------------------------------------------------------------
 #p b3lyp jul-cc-pvdz empiricaldispersion=gd3bj opt freq=noraman pop=no
 ne
 ----------------------------------------------------------------------

 -----
 title
 -----
 Symbolic Z-matrix:
 Charge =  0 Multiplicity = 6

 SCF Done:  E(UB3LYP) =  -3531.56788395     A.U. after   23 cycles
 Optimization completed.
    -- Stationary point found.
 Normal termination of Gaussian 16 at Fri Jun  4 17:13:37 2021.

 ----------------------------------------------------------------------
 #P Geom=AllCheck Guess=TCheck SCRF=Check GenChk UB3LYP/Jul-CC-pVDZ Fre
 q
 ----------------------------------------------------------------------

 Structure from the checkpoint file:  "/scratch/kwaneu.2863309.bmbhpcps002/Gau-26089.chk"
 -----
 title
 -----
 Charge =  0 Multiplicity = 6

                         Standard orientation:
 ---------------------------------------------------------------------
 Center     Atomic      Atomic             Coordinates (Angstroms)
 Number     Number       Type             X           Y           Z
 ---------------------------------------------------------------------
      1          6           0        2.977898   -1.772100    0.118085
      2          6           0        1.794710   -1.149151   -0.303381
      3          6           0        1.755697   -0.542815   -1.560917
      4          6           0        2.889090   -0.544137   -2.378656
      5          6           0        4.068445   -1.157485   -1.952218
      6          6           0        4.107942   -1.777509   -0.698791
      7          6           0        0.615364   -1.156129    0.629893
      8          6           0        0.796991   -0.400391    1.959805
      9          6           0       -0.300482   -0.951500    2.872478
     10          6           0       -0.312841   -2.451295    2.524807
     11          6           0       -0.010320   -2.529086    1.019986
     12          6           0       -1.163185   -2.226250    0.039343
     13          6           0       -1.001060   -2.909275   -1.304854
     14          8           0       -0.653507   -0.792344   -0.069817
     15         26           0       -1.727716    0.820062   -0.652474
     16         17           0       -2.801737    0.045283   -2.409735
     17          6           0       -2.585013   -2.266639    0.548067
     18         17           0       -0.337297    2.409251   -1.225461
     19         17           0       -3.084649    1.294188    0.990533
     20          1           0        0.849516   -0.054874   -1.906282
     21          1           0        2.844417   -0.058967   -3.354170
     22          1           0        4.951459   -1.157306   -2.592157
     23          1           0        5.020653   -2.266631   -0.356710
     24          1           0        3.020796   -2.261563    1.092769
     25          1           0        1.778421   -0.742263    2.322048
     26          6           0        0.888235    1.112286    1.882633
     27          1           0       -0.087558   -0.758329    3.929922
     28          1           0       -1.252269   -0.460998    2.638166
     29          1           0        0.492097   -2.966237    3.068776
     30          1           0       -1.250583   -2.951258    2.795199
     31          1           0        0.575370   -3.408350    0.735500
     32          1           0       -2.848820   -3.312444    0.757845
     33          1           0       -2.720839   -1.678480    1.459456
     34          1           0       -3.275505   -1.889457   -0.215525
     35          1           0       -1.270698   -3.968815   -1.190096
     36          1           0       -1.664378   -2.457055   -2.050091
     37          1           0        0.033012   -2.850276   -1.661765
     38          8           0        1.989045    1.483008    1.210629
     39          8           0        0.095424    1.871486    2.392349
     40          6           0        2.218451    2.910775    1.056518
     41          6           0        3.226389    3.080625   -0.059691
     42          1           0        1.261153    3.392148    0.832737
     43          1           0        2.587471    3.294547    2.018299
     44          1           0        3.444131    4.149365   -0.195919
     45          1           0        4.165096    2.558886    0.171841
     46          1           0        2.824725    2.681730   -1.000169
 ---------------------------------------------------------------------

 SCF Done:  E(UB3LYP) =  -3531.56788395     A.U. after    1 cycles

 Isotropic polarizability for W=    0.000000      279.65 Bohr**3.
 End of Minotr F.D. properties file   721 does not exist.

                      1                      2                      3
                      A                      A                      A
 Frequencies --     28.6929                34.0837                40.1736
 Red. masses --      6.2845                 7.0903                 4.5610
 Frc consts  --      0.0030                 0.0049                 0.0043
 IR Inten    --      0.6806                 0.3471                 0.1040

                      4                      5                      6
                      A                      A                      A
 Frequencies --     48.4548                56.2169                60.3622
 Red. masses --      5.2166                 5.5537                 5.6142
 Frc consts  --      0.0072                 0.0103                 0.0121
 IR Inten    --      1.5245                 1.4412                 0.0770

                      7                      8                      9
                      A                      A                      A
 Frequencies --     79.4170                82.3343                86.7966
 Red. masses --      6.3325                 8.6238                 6.9638
 Frc consts  --      0.0235                 0.0344                 0.0309
 IR Inten    --      0.2503                 0.3174                 1.5491

                     10                     11                     12
                      A                      A                      A
 Frequencies --     96.6640               104.5043               117.0612
 Red. masses --     10.4752                 6.5090                10.6979
 Frc consts  --      0.0577                 0.0419                 0.0864
 IR Inten    --      0.0981                 0.0725                 2.3679

                     13                     14                     15
                      A                      A                      A
 Frequencies --    122.3330               127.0859               148.2284
 Red. masses --     11.6896                 6.6366                 2.9856
 Frc consts  --      0.1031                 0.0632                 0.0387
 IR Inten    --      4.9661                 1.1866                 2.0669

                     16                     17                     18
                      A                      A                      A
 Frequencies --    163.1254               167.4811               200.9360
 Red. masses --      4.3051                 2.0801                 4.0858
 Frc consts  --      0.0675                 0.0344                 0.0972
 IR Inten    --      0.5679                 3.8307                 5.6665

                     19                     20                     21
                      A                      A                      A
 Frequencies --    212.1695               218.9985               231.2619
 Red. masses --      3.1123                 1.4763                 2.1027
 Frc consts  --      0.0825                 0.0417                 0.0663
 IR Inten    --      5.0225                 4.2191                 1.5529

                     22                     23                     24
                      A                      A                      A
 Frequencies --    251.4113               263.3573               269.4262
 Red. masses --      1.4564                 1.3697                 3.7553
 Frc consts  --      0.0542                 0.0560                 0.1606
 IR Inten    --      0.5827                 4.6895                 1.1649

                     25                     26                     27
                      A                      A                      A
 Frequencies --    278.4307               313.6991               317.3400
 Red. masses --      2.6155                 5.0796                 2.1650
 Frc consts  --      0.1195                 0.2945                 0.1285
 IR Inten    --      0.8168                 6.4589                 0.3042

                     28                     29                     30
                      A                      A                      A
 Frequencies --    342.1727               352.7319               377.4141
 Red. masses --      3.5177                26.3058                 2.7953
 Frc consts  --      0.2427                 1.9284                 0.2346
 IR Inten    --      2.7309                25.8988                 0.7746

                     31                     32                     33
                      A                      A                      A
 Frequencies --    387.2653               400.6924               405.4999
 Red. masses --      3.8453                 3.5980                 6.6603
 Frc consts  --      0.3398                 0.3404                 0.6452
 IR Inten    --      4.2669                26.0329                52.0194

                     34                     35                     36
                      A                      A                      A
 Frequencies --    409.2284               420.5596               464.3089
 Red. masses --      3.5006                29.8870                 4.6333
 Frc consts  --      0.3454                 3.1145                 0.5885
 IR Inten    --     15.9264                78.5079                 8.2095

                     37                     38                     39
                      A                      A                      A
 Frequencies --    482.2638               503.7470               535.1647
 Red. masses --      3.4677                 3.0120                 3.5872
 Frc consts  --      0.4752                 0.4503                 0.6053
 IR Inten    --      6.0419                 1.8198                 1.6129

                     40                     41                     42
                      A                      A                      A
 Frequencies --    560.8303               623.5644               631.5914
 Red. masses --      3.3672                 2.8365                 6.0095
 Frc consts  --      0.6240                 0.6498                 1.4124
 IR Inten    --      9.6722                 2.0705                 0.5329

                     43                     44                     45
                      A                      A                      A
 Frequencies --    678.0054               685.8150               702.8920
 Red. masses --      4.1798                 4.8749                 1.6242
 Frc consts  --      1.1321                 1.3509                 0.4728
 IR Inten    --      5.6752                23.6344                37.2515

                     46                     47                     48
                      A                      A                      A
 Frequencies --    742.9777               763.7619               770.3523
 Red. masses --      4.3082                 2.2861                 2.9176
 Frc consts  --      1.4012                 0.7857                 1.0201
 IR Inten    --    109.9049                11.1706                18.1231

                     49                     50                     51
                      A                      A                      A
 Frequencies --    792.2784               808.8459               839.0684
 Red. masses --      5.8909                 1.1446                 1.2528
 Frc consts  --      2.1786                 0.4412                 0.5197
 IR Inten    --      7.7899                 1.8252                 0.4917

                     52                     53                     54
                      A                      A                      A
 Frequencies --    861.4126               873.0689               883.8396
 Red. masses --      3.1926                 3.0216                 2.6626
 Frc consts  --      1.3958                 1.3570                 1.2255
 IR Inten    --     14.9303                31.4868                67.6776

                     55                     56                     57
                      A                      A                      A
 Frequencies --    909.6369               913.6365               944.8929
 Red. masses --      2.2075                 1.5347                 2.9445
 Frc consts  --      1.0762                 0.7548                 1.5489
 IR Inten    --     36.0900                 3.2721                 8.4112

                     58                     59                     60
                      A                      A                      A
 Frequencies --    947.8449               961.5369               975.0371
 Red. masses --      1.6553                 2.2919                 1.3792
 Frc consts  --      0.8762                 1.2485                 0.7725
 IR Inten    --      0.2953                11.1949                 0.4747

                     61                     62                     63
                      A                      A                      A
 Frequencies --    981.7150               995.3112              1000.4376
 Red. masses --      1.8703                 1.3508                 3.3223
 Frc consts  --      1.0620                 0.7884                 1.9592
 IR Inten    --      7.6816                 0.2622                 1.8010

                     64                     65                     66
                      A                      A                      A
 Frequencies --   1007.8931              1013.8534              1030.4914
 Red. masses --      1.3772                 5.3085                 2.5589
 Frc consts  --      0.8243                 3.2149                 1.6010
 IR Inten    --      1.1292                 0.8164                25.5186

                     67                     68                     69
                      A                      A                      A
 Frequencies --   1049.1350              1053.9597              1059.4141
 Red. masses --      2.2859                 2.0571                 1.9123
 Frc consts  --      1.4824                 1.3463                 1.2645
 IR Inten    --     40.1373                 2.8468                 2.3734

                     70                     71                     72
                      A                      A                      A
 Frequencies --   1101.0070              1109.2656              1114.8315
 Red. masses --      1.6037                 1.9077                 1.8843
 Frc consts  --      1.1454                 1.3830                 1.3798
 IR Inten    --     23.5451                 6.7754                10.7174

                     73                     74                     75
                      A                      A                      A
 Frequencies --   1131.8217              1152.2183              1170.2869
 Red. masses --      2.1323                 2.7620                 1.6362
 Frc consts  --      1.6093                 2.1604                 1.3203
 IR Inten    --      6.9334                42.6276                14.0797

                     76                     77                     78
                      A                      A                      A
 Frequencies --   1174.0269              1174.5387              1178.0656
 Red. masses --      1.1565                 1.6385                 1.8263
 Frc consts  --      0.9392                 1.3318                 1.4934
 IR Inten    --      0.8852                10.0127                25.9414

                     79                     80                     81
                      A                      A                      A
 Frequencies --   1203.5677              1212.9236              1231.4734
 Red. masses --      1.1288                 2.1159                 2.0995
 Frc consts  --      0.9634                 1.8340                 1.8759
 IR Inten    --      2.3266               104.8071                38.9052

                     82                     83                     84
                      A                      A                      A
 Frequencies --   1251.4245              1280.8776              1287.5375
 Red. masses --      1.6860                 1.7884                 1.1209
 Frc consts  --      1.5556                 1.7288                 1.0948
 IR Inten    --     20.5143                25.2700                 1.2027

                     85                     86                     87
                      A                      A                      A
 Frequencies --   1301.3545              1301.6151              1320.9044
 Red. masses --      2.5597                 1.6138                 1.8310
 Frc consts  --      2.5540                 1.6109                 1.8823
 IR Inten    --     36.1305                58.1853                21.9476

                     88                     89                     90
                      A                      A                      A
 Frequencies --   1329.1436              1339.5109              1361.3835
 Red. masses --      1.6381                 1.7153                 2.9215
 Frc consts  --      1.7051                 1.8134                 3.1902
 IR Inten    --      7.3373                 2.5391                 0.9342

                     91                     92                     93
                      A                      A                      A
 Frequencies --   1366.1005              1366.9314              1388.0324
 Red. masses --      1.6774                 1.6116                 1.5790
 Frc consts  --      1.8444                 1.7742                 1.7924
 IR Inten    --     10.1710                13.2562                38.2839

                     94                     95                     96
                      A                      A                      A
 Frequencies --   1405.6120              1416.8241              1419.9441
 Red. masses --      1.3470                 1.4941                 1.2555
 Frc consts  --      1.5680                 1.7671                 1.4915
 IR Inten    --     20.8861                 4.7686                28.9123

                     97                     98                     99
                      A                      A                      A
 Frequencies --   1468.8247              1472.7310              1474.7743
 Red. masses --      1.0703                 2.1744                 1.0556
 Frc consts  --      1.3605                 2.7787                 1.3528
 IR Inten    --      2.0373                 8.3995                 7.2653

                    100                    101                    102
                      A                      A                      A
 Frequencies --   1481.6333              1485.3696              1488.6878
 Red. masses --      1.0685                 1.0509                 1.0578
 Frc consts  --      1.3820                 1.3660                 1.3812
 IR Inten    --      7.4640                 2.0906                 0.1579

                    103                    104                    105
                      A                      A                      A
 Frequencies --   1497.9101              1501.3662              1506.4191
 Red. masses --      1.0847                 1.0863                 1.0880
 Frc consts  --      1.4339                 1.4427                 1.4546
 IR Inten    --      1.2855                 6.4575                 9.6748

                    106                    107                    108
                      A                      A                      A
 Frequencies --   1513.4564              1526.4585              1631.4736
 Red. masses --      1.0627                 2.3463                 5.9290
 Frc consts  --      1.4342                 3.2211                 9.2980
 IR Inten    --      3.9406                 6.9648                 0.2150

                    109                    110                    111
                      A                      A                      A
 Frequencies --   1654.2778              1785.4689              3040.1979
 Red. masses --      5.8861                12.0641                 1.0352
 Frc consts  --      9.4906                22.6594                 5.6371
 IR Inten    --      2.7501               217.4715                15.3843

                    112                    113                    114
                      A                      A                      A
 Frequencies --   3043.5335              3045.7216              3048.6048
 Red. masses --      1.0385                 1.0809                 1.0669
 Frc consts  --      5.6677                 5.9077                 5.8425
 IR Inten    --      7.7562                 4.7985                23.3319

                    115                    116                    117
                      A                      A                      A
 Frequencies --   3052.2320              3059.0008              3082.6040
 Red. masses --      1.0405                 1.0660                 1.0615
 Frc consts  --      5.7111                 5.8771                 5.9431
 IR Inten    --     15.2541                31.0582                11.7528

                    118                    119                    120
                      A                      A                      A
 Frequencies --   3106.4709              3112.8333              3112.9102
 Red. masses --      1.0971                 1.0997                 1.0917
 Frc consts  --      6.2376                 6.2780                 6.2331
 IR Inten    --     17.9617                 3.4253                26.1792

                    121                    122                    123
                      A                      A                      A
 Frequencies --   3122.8500              3125.2545              3127.7266
 Red. masses --      1.0980                 1.1000                 1.0989
 Frc consts  --      6.3088                 6.3300                 6.3337
 IR Inten    --      2.4007                19.9069                10.8689

                    124                    125                    126
                      A                      A                      A
 Frequencies --   3132.2867              3144.2417              3151.3954
 Red. masses --      1.1061                 1.1026                 1.1040
 Frc consts  --      6.3938                 6.4224                 6.4600
 IR Inten    --     14.3063                16.0058                 4.5132

                    127                    128                    129
                      A                      A                      A
 Frequencies --   3159.4878              3165.2331              3174.8512
 Red. masses --      1.0870                 1.1009                 1.0874
 Frc consts  --      6.3930                 6.4985                 6.4580
 IR Inten    --      6.6636                 4.5280                 1.6327

                    130                    131                    132
                      A                      A                      A
 Frequencies --   3185.3917              3197.1738              3235.7087
 Red. masses --      1.0929                 1.0982                 1.0917
 Frc consts  --      6.5334                 6.6137                 6.7345
 IR Inten    --     13.8847                14.9215                 0.7390

 - Thermochemistry -
 -------------------
 Temperature   298.150 Kelvin.  Pressure   1.00000 Atm.
 Atom     1 has atomic number  6 and mass  12.00000

 Molecular mass:   434.99839 amu.
 Principal axes and moments of inertia in atomic units:
                           1         2         3
     Eigenvalues --  8092.89702********************
           X            0.99635   0.08038  -0.02869
           Y           -0.08098   0.99651  -0.02028
           Z            0.02696   0.02253   0.99938
 This molecule is an asymmetric top.
 Rotational symmetry number  1.
 Warning -- assumption of classical behavior for rotation
           may cause significant error
 Rotational temperatures (Kelvin)      0.01070     0.00812     0.00738
 Rotational constants (GHZ):           0.22300     0.16928     0.15376
 Zero-point vibrational energy     953842.3 (Joules/Mol)
                                  227.97378 (Kcal/Mol)
 Warning -- explicit consideration of  40 degrees of freedom as
           vibrations may cause significant error
 Vibrational temperatures:     41.28    49.04    57.80    69.72    80.88
          (Kelvin)             86.85   114.26   118.46   124.88   139.08
                              150.36   168.43   176.01   182.85   213.27
                              234.70   240.97   289.10   305.26   315.09
                              332.73   361.72   378.91   387.64   400.60
                              451.34   456.58   492.31   507.50   543.01
                              557.19   576.51   583.42   588.79   605.09
                              668.04   693.87   724.78   769.98   806.91
                              897.17   908.72   975.50   986.73  1011.30
                             1068.98  1098.88  1108.37  1139.91  1163.75
                             1207.23  1239.38  1256.15  1271.65  1308.76
                             1314.52  1359.49  1363.74  1383.44  1402.86
                             1412.47  1432.03  1439.41  1450.13  1458.71
                             1482.65  1509.47  1516.41  1524.26  1584.10
                             1595.99  1603.99  1628.44  1657.79  1683.78
                             1689.16  1689.90  1694.97  1731.67  1745.13
                             1771.82  1800.52  1842.90  1852.48  1872.36
                             1872.73  1900.49  1912.34  1927.26  1958.73
                             1965.51  1966.71  1997.07  2022.36  2038.49
                             2042.98  2113.31  2118.93  2121.87  2131.74
                             2137.12  2141.89  2155.16  2160.13  2167.40
                             2177.53  2196.23  2347.33  2380.14  2568.89
                             4374.17  4378.97  4382.11  4386.26  4391.48
                             4401.22  4435.18  4469.52  4478.67  4478.78
                             4493.08  4496.54  4500.10  4506.66  4523.86
                             4534.16  4545.80  4554.06  4567.90  4583.07
                             4600.02  4655.46

 Zero-point correction=                           0.363299 (Hartree/Particle)
 Thermal correction to Energy=                    0.389775
 Thermal correction to Enthalpy=                  0.390719
 Thermal correction to Gibbs Free Energy=         0.303556
 Sum of electronic and zero-point Energies=          -3531.204585
 Sum of electronic and thermal Energies=             -3531.178109
 Sum of electronic and thermal Enthalpies=           -3531.177165
 Sum of electronic and thermal Free Energies=        -3531.264328

                     E (Thermal)             CV                S
                      KCal/Mol        Cal/Mol-Kelvin    Cal/Mol-Kelvin
 Total                  244.587             96.450            183.450
 Electronic               0.000              0.000              3.561
 Translational            0.889              2.981             44.100
 Rotational               0.889              2.981             35.270
 Vibrational            242.810             90.489            100.519
 Vibration     1          0.593              1.984              5.918
 Vibration     2          0.594              1.983              5.576
 Vibration     3          0.594              1.981              5.251
 Vibration     4          0.595              1.978              4.879
 Vibration     5          0.596              1.975              4.586
 Vibration     6          0.597              1.973              4.445
 Vibration     7          0.600              1.963              3.905
 Vibration     8          0.600              1.961              3.834
 Vibration     9          0.601              1.958              3.731
 Vibration    10          0.603              1.952              3.520
 Vibration    11          0.605              1.946              3.369
 Vibration    12          0.608              1.935              3.148
 Vibration    13          0.610              1.930              3.063
 Vibration    14          0.611              1.926              2.990
 Vibration    15          0.618              1.905              2.695
 Vibration    16          0.623              1.888              2.513
 Vibration    17          0.624              1.882              2.464
 Vibration    18          0.638              1.839              2.125
 Vibration    19          0.643              1.822              2.025
 Vibration    20          0.647              1.812              1.967
 Vibration    21          0.653              1.793              1.869
 Vibration    22          0.663              1.760              1.721
 Vibration    23          0.670              1.740              1.639
 Vibration    24          0.674              1.729              1.600
 Vibration    25          0.679              1.713              1.543
 Vibration    26          0.702              1.648              1.343
 Vibration    27          0.704              1.640              1.324
 Vibration    28          0.721              1.591              1.202
 Vibration    29          0.729              1.570              1.154
 Vibration    30          0.748              1.518              1.050
 Vibration    31          0.756              1.497              1.011
 Vibration    32          0.767              1.469              0.960
 Vibration    33          0.770              1.458              0.943
 Vibration    34          0.774              1.450              0.929
 Vibration    35          0.783              1.426              0.890
 Vibration    36          0.822              1.329              0.754
 Vibration    37          0.839              1.289              0.704
 Vibration    38          0.859              1.242              0.649
 Vibration    39          0.890              1.172              0.576
 Vibration    40          0.916              1.116              0.522

                           ! Non-Optimized Parameters !
 Normal termination of Gaussian 16 at Fri Jun  4 21:17:23 2021.
