 Gaussian 16, Revision A.03,
 Gaussian 16:  ES64L-G16RevA.03 25-Dec-2016

 ----------------------------------------------------------------------
 #p b3lyp jul-cc-pvdz empiricaldispersion=gd3bj opt freq=noraman pop=no
 ne
 ----------------------------------------------------------------------

 -----
 title
 -----
 Symbolic Z-matrix:
 Charge =  0 Multiplicity = 6

 SCF Done:  E(UB3LYP) =  -3531.56678201     A.U. after   22 cycles
 Optimization completed.
    -- Stationary point found.
 Normal termination of Gaussian 16 at Fri Jun  4 17:12:03 2021.

 ----------------------------------------------------------------------
 #P Geom=AllCheck Guess=TCheck SCRF=Check GenChk UB3LYP/Jul-CC-pVDZ Fre
 q
 ----------------------------------------------------------------------

 Structure from the checkpoint file:  "/scratch/kwaneu.2863308.bmbhpcps002/Gau-13786.chk"
 -----
 title
 -----
 Charge =  0 Multiplicity = 6

                         Standard orientation:
 ---------------------------------------------------------------------
 Center     Atomic      Atomic             Coordinates (Angstroms)
 Number     Number       Type             X           Y           Z
 ---------------------------------------------------------------------
      1          6           0       -2.800370    1.413758    0.757387
      2          6           0       -1.548668    0.794352    0.887360
      3          6           0       -1.354636   -0.149717    1.898818
      4          6           0       -2.401866   -0.479288    2.763140
      5          6           0       -3.650396    0.131879    2.626409
      6          6           0       -3.845879    1.082708    1.619738
      7          6           0       -0.469593    1.161128   -0.096646
      8          6           0       -0.774535    0.854738   -1.594417
      9          6           0       -0.889487    2.237801   -2.255762
     10          6           0        0.120932    3.119021   -1.504280
     11          6           0        0.064012    2.618928   -0.051078
     12          6           0        1.347661    2.079935    0.625928
     13          6           0        1.385521    2.278419    2.127523
     14          8           0        0.863411    0.659513    0.347422
     15         26           0        1.965095   -0.993655    0.024396
     16         17           0        0.773178   -2.760845    0.476870
     17          6           0        2.680297    2.352626   -0.034607
     18         17           0        3.619222   -0.752849    1.447798
     19         17           0        2.552334   -0.830975   -2.091428
     20          1           0       -0.394715   -0.646125    2.004925
     21          1           0       -2.237615   -1.223111    3.543434
     22          1           0       -4.466996   -0.128697    3.300567
     23          1           0       -4.815342    1.567768    1.502709
     24          1           0       -2.969685    2.147494   -0.030472
     25          1           0        0.092041    0.312175   -1.993916
     26          6           0       -1.999743   -0.013315   -1.812096
     27          1           0       -0.698948    2.189419   -3.334199
     28          1           0       -1.914666    2.609674   -2.129847
     29          1           0        1.120881    2.983584   -1.931156
     30          1           0       -0.119220    4.186340   -1.578217
     31          1           0       -0.516270    3.281008    0.599123
     32          1           0        2.714363    1.985963   -1.065059
     33          1           0        2.847819    3.438806   -0.042394
     34          1           0        3.493528    1.880759    0.527027
     35          1           0        2.134661    1.616430    2.578216
     36          1           0        1.667120    3.319775    2.339085
     37          1           0        0.408459    2.080599    2.582549
     38          8           0       -1.829826   -1.226819   -1.273035
     39          8           0       -3.006034    0.349547   -2.384927
     40          6           0       -2.994234   -2.097596   -1.277922
     41          6           0       -2.677303   -3.296713   -0.411615
     42          1           0       -3.846299   -1.520712   -0.896000
     43          1           0       -3.208228   -2.375305   -2.318817
     44          1           0       -3.545479   -3.971180   -0.399739
     45          1           0       -1.809602   -3.845753   -0.797926
     46          1           0       -2.459434   -2.984416    0.617761
 ---------------------------------------------------------------------

 SCF Done:  E(UB3LYP) =  -3531.56678201     A.U. after    2 cycles

 Isotropic polarizability for W=    0.000000      279.46 Bohr**3.
 End of Minotr F.D. properties file   721 does not exist.

                      1                      2                      3
                      A                      A                      A
 Frequencies --     15.0769                27.3836                39.2812
 Red. masses --      7.6287                 3.2358                 6.1130
 Frc consts  --      0.0010                 0.0014                 0.0056
 IR Inten    --      0.2635                 0.7636                 0.3746

                      4                      5                      6
                      A                      A                      A
 Frequencies --     52.6799                55.3257                62.6479
 Red. masses --      5.0862                 4.0797                 4.1589
 Frc consts  --      0.0083                 0.0074                 0.0096
 IR Inten    --      0.4872                 0.1740                 0.3252

                      7                      8                      9
                      A                      A                      A
 Frequencies --     75.1232                79.5984                85.2469
 Red. masses --      5.3578                 5.1710                 6.6614
 Frc consts  --      0.0178                 0.0193                 0.0285
 IR Inten    --      0.6092                 2.0107                 0.5465

                     10                     11                     12
                      A                      A                      A
 Frequencies --     87.9630                97.7865               112.7326
 Red. masses --      9.5852                 8.5734                10.1449
 Frc consts  --      0.0437                 0.0483                 0.0760
 IR Inten    --      0.9183                 0.4191                 3.1336

                     13                     14                     15
                      A                      A                      A
 Frequencies --    114.9283               117.4841               129.9624
 Red. masses --      6.3237                 8.3507                 5.9119
 Frc consts  --      0.0492                 0.0679                 0.0588
 IR Inten    --      4.0349                 0.5809                 2.6338

                     16                     17                     18
                      A                      A                      A
 Frequencies --    151.7100               171.6457               197.2483
 Red. masses --      4.1707                 2.2844                 3.6378
 Frc consts  --      0.0566                 0.0397                 0.0834
 IR Inten    --      0.0968                 3.0809                 5.1739

                     19                     20                     21
                      A                      A                      A
 Frequencies --    210.1064               220.4203               227.5060
 Red. masses --      3.2120                 3.3969                 1.4883
 Frc consts  --      0.0835                 0.0972                 0.0454
 IR Inten    --      5.0757                 3.6864                 2.0119

                     22                     23                     24
                      A                      A                      A
 Frequencies --    250.4277               261.6865               267.3913
 Red. masses --      1.7267                 1.3112                 1.6372
 Frc consts  --      0.0638                 0.0529                 0.0690
 IR Inten    --      1.3454                 0.5281                 2.2192

                     25                     26                     27
                      A                      A                      A
 Frequencies --    276.2452               306.7515               319.6264
 Red. masses --      3.7050                 3.2884                 3.1473
 Frc consts  --      0.1666                 0.1823                 0.1894
 IR Inten    --      1.6437                 3.6073                 3.1153

                     28                     29                     30
                      A                      A                      A
 Frequencies --    348.7615               352.5493               372.8898
 Red. masses --      9.5081                 4.3403                 3.4355
 Frc consts  --      0.6814                 0.3178                 0.2814
 IR Inten    --     18.3913                12.5596                 5.1646

                     31                     32                     33
                      A                      A                      A
 Frequencies --    393.1979               407.6784               409.7191
 Red. masses --      3.0053                33.4428                 3.0509
 Frc consts  --      0.2738                 3.2748                 0.3017
 IR Inten    --     11.4611                80.6507                 5.4571

                     34                     35                     36
                      A                      A                      A
 Frequencies --    418.1883               422.8628               441.1655
 Red. masses --     12.2580                 5.0781                 4.0322
 Frc consts  --      1.2630                 0.5350                 0.4624
 IR Inten    --     63.6418                12.8810                 5.8380

                     37                     38                     39
                      A                      A                      A
 Frequencies --    470.2603               512.6950               544.5702
 Red. masses --      3.9850                 3.3184                 2.9048
 Frc consts  --      0.5192                 0.5139                 0.5075
 IR Inten    --      1.9392                 5.5849                 9.2341

                     40                     41                     42
                      A                      A                      A
 Frequencies --    558.0832               617.9415               630.9703
 Red. masses --      2.6346                 4.3804                 6.3121
 Frc consts  --      0.4835                 0.9855                 1.4806
 IR Inten    --      6.4022                12.0972                 0.7893

                     43                     44                     45
                      A                      A                      A
 Frequencies --    669.6287               693.1397               706.2202
 Red. masses --      4.3888                 4.9649                 1.6253
 Frc consts  --      1.1595                 1.4054                 0.4776
 IR Inten    --      6.8478                24.1876                38.4219

                     46                     47                     48
                      A                      A                      A
 Frequencies --    749.8318               764.5550               780.1268
 Red. masses --      3.5921                 3.2478                 3.0578
 Frc consts  --      1.1900                 1.1185                 1.0965
 IR Inten    --    104.1129                 2.4971                22.6631

                     49                     50                     51
                      A                      A                      A
 Frequencies --    806.1272               810.5435               829.4562
 Red. masses --      1.6560                 1.8155                 2.9202
 Frc consts  --      0.6340                 0.7027                 1.1837
 IR Inten    --     14.5695                10.2779                 6.2237

                     52                     53                     54
                      A                      A                      A
 Frequencies --    844.2281               858.1765               877.0308
 Red. masses --      1.2513                 2.5059                 2.5720
 Frc consts  --      0.5255                 1.0874                 1.1656
 IR Inten    --      0.2016                41.6716                16.3624

                     55                     56                     57
                      A                      A                      A
 Frequencies --    919.1727               929.6425               944.6910
 Red. masses --      1.4458                 2.7047                 2.9853
 Frc consts  --      0.7197                 1.3772                 1.5697
 IR Inten    --      4.4181                74.9388                17.5071

                     58                     59                     60
                      A                      A                      A
 Frequencies --    949.3960               972.6033               978.6818
 Red. masses --      1.4797                 2.4292                 1.3748
 Frc consts  --      0.7858                 1.3539                 0.7759
 IR Inten    --      2.5788                 5.1998                 0.2816

                     61                     62                     63
                      A                      A                      A
 Frequencies --    990.1684               990.8513               996.9787
 Red. masses --      1.9958                 3.5121                 1.3375
 Frc consts  --      1.1529                 2.0316                 0.7833
 IR Inten    --     16.7467                 1.5575                 0.4607

                     64                     65                     66
                      A                      A                      A
 Frequencies --   1013.6378              1015.3433              1032.5201
 Red. masses --      2.5144                 2.0212                 2.4282
 Frc consts  --      1.5221                 1.2277                 1.5252
 IR Inten    --      1.6092                 0.5732                26.4514

                     67                     68                     69
                      A                      A                      A
 Frequencies --   1046.3569              1056.5840              1060.3290
 Red. masses --      2.1824                 2.0149                 2.2159
 Frc consts  --      1.4078                 1.3253                 1.4679
 IR Inten    --     25.5831                 4.7227                12.9718

                     70                     71                     72
                      A                      A                      A
 Frequencies --   1110.1814              1115.0955              1117.7708
 Red. masses --      1.6764                 3.4036                 2.3466
 Frc consts  --      1.2174                 2.4935                 1.7274
 IR Inten    --      1.1248                22.3082                 4.6590

                     73                     74                     75
                      A                      A                      A
 Frequencies --   1136.8267              1144.3269              1170.0883
 Red. masses --      2.2270                 2.0013                 1.6873
 Frc consts  --      1.6957                 1.5441                 1.3611
 IR Inten    --     11.8713                30.3537                 6.3712

                     76                     77                     78
                      A                      A                      A
 Frequencies --   1171.9061              1174.7357              1184.7324
 Red. masses --      1.6076                 1.0993                 1.7735
 Frc consts  --      1.3008                 0.8938                 1.4666
 IR Inten    --      1.2576                 0.2727                 7.0328

                     79                     80                     81
                      A                      A                      A
 Frequencies --   1205.1404              1214.5539              1234.3346
 Red. masses --      1.1303                 1.5861                 2.2861
 Frc consts  --      0.9672                 1.3785                 2.0522
 IR Inten    --      1.2413                19.4579               128.6265

                     82                     83                     84
                      A                      A                      A
 Frequencies --   1257.0715              1270.9860              1288.5217
 Red. masses --      2.0440                 1.9222                 1.1093
 Frc consts  --      1.9031                 1.8295                 1.0851
 IR Inten    --     69.3662                 7.2630                 0.3453

                     85                     86                     87
                      A                      A                      A
 Frequencies --   1296.3863              1310.7974              1317.9937
 Red. masses --      2.4510                 1.6488                 1.5256
 Frc consts  --      2.4270                 1.6691                 1.5614
 IR Inten    --     19.6825                29.4641                26.6055

                     88                     89                     90
                      A                      A                      A
 Frequencies --   1325.3544              1339.5255              1360.6605
 Red. masses --      1.5488                 1.8093                 2.7222
 Frc consts  --      1.6030                 1.9127                 2.9694
 IR Inten    --     35.7125                 1.3815                 2.4659

                     91                     92                     93
                      A                      A                      A
 Frequencies --   1365.3072              1369.0297              1390.4303
 Red. masses --      1.5212                 1.6389                 1.5698
 Frc consts  --      1.6707                 1.8098                 1.7881
 IR Inten    --     20.7650                 3.9600                42.6172

                     94                     95                     96
                      A                      A                      A
 Frequencies --   1405.1875              1417.3249              1419.8459
 Red. masses --      1.3582                 1.2357                 1.5127
 Frc consts  --      1.5800                 1.4625                 1.7968
 IR Inten    --     20.7661                23.5431                 3.5728

                     97                     98                     99
                      A                      A                      A
 Frequencies --   1470.3059              1472.8477              1473.8431
 Red. masses --      1.0774                 1.8654                 1.1351
 Frc consts  --      1.3723                 2.3842                 1.4527
 IR Inten    --      1.9230                 9.4937                 6.0702

                    100                    101                    102
                      A                      A                      A
 Frequencies --   1483.5007              1484.1218              1491.9926
 Red. masses --      1.0538                 1.0646                 1.0764
 Frc consts  --      1.3664                 1.3816                 1.4117
 IR Inten    --     10.1103                 0.5379                 0.7938

                    103                    104                    105
                      A                      A                      A
 Frequencies --   1492.9984              1503.1755              1507.0105
 Red. masses --      1.0672                 1.0961                 1.0889
 Frc consts  --      1.4016                 1.4592                 1.4571
 IR Inten    --      4.3065                 9.0364                10.9065

                    106                    107                    108
                      A                      A                      A
 Frequencies --   1516.8749              1526.5920              1630.4845
 Red. masses --      1.0625                 2.2870                 5.8986
 Frc consts  --      1.4405                 3.1403                 9.2392
 IR Inten    --      5.6049                 8.5587                 0.2447

                    109                    110                    111
                      A                      A                      A
 Frequencies --   1653.6372              1772.2900              3040.6315
 Red. masses --      5.8047                12.0520                 1.0368
 Frc consts  --      9.3522                22.3037                 5.6475
 IR Inten    --      2.7034               232.5729                 6.8959

                    112                    113                    114
                      A                      A                      A
 Frequencies --   3043.3259              3050.2473              3059.9417
 Red. masses --      1.0360                 1.0397                 1.0582
 Frc consts  --      5.6533                 5.6991                 5.8380
 IR Inten    --     13.1983                 9.3520                19.4377

                    115                    116                    117
                      A                      A                      A
 Frequencies --   3066.7822              3073.6342              3076.7830
 Red. masses --      1.0693                 1.0747                 1.0634
 Frc consts  --      5.9255                 5.9818                 5.9314
 IR Inten    --     15.3806                 4.3466                30.4255

                    118                    119                    120
                      A                      A                      A
 Frequencies --   3103.4402              3107.0576              3116.0017
 Red. masses --      1.0916                 1.1077                 1.1007
 Frc consts  --      6.1944                 6.3002                 6.2966
 IR Inten    --      6.7238                 5.4408                10.2173

                    121                    122                    123
                      A                      A                      A
 Frequencies --   3119.9660              3120.1939              3128.5074
 Red. masses --      1.1004                 1.0995                 1.1027
 Frc consts  --      6.3107                 6.3069                 6.3586
 IR Inten    --     32.3251                 5.1161                13.2087

                    124                    125                    126
                      A                      A                      A
 Frequencies --   3132.1670              3139.1741              3142.4176
 Red. masses --      1.0980                 1.1048                 1.1040
 Frc consts  --      6.3468                 6.4146                 6.4229
 IR Inten    --     12.5056                21.3441                 9.4092

                    127                    128                    129
                      A                      A                      A
 Frequencies --   3157.5026              3171.6826              3180.5246
 Red. masses --      1.1030                 1.0851                 1.0888
 Frc consts  --      6.4792                 6.4310                 6.4893
 IR Inten    --      5.6505                 0.1089                 4.1688

                    130                    131                    132
                      A                      A                      A
 Frequencies --   3189.5463              3198.6990              3233.9303
 Red. masses --      1.0935                 1.0984                 1.0918
 Frc consts  --      6.5543                 6.6217                 6.7275
 IR Inten    --     13.1169                11.4937                 0.9181

 - Thermochemistry -
 -------------------
 Temperature   298.150 Kelvin.  Pressure   1.00000 Atm.
 Atom     1 has atomic number  6 and mass  12.00000

 Molecular mass:   434.99839 amu.
 Principal axes and moments of inertia in atomic units:
                           1         2         3
     Eigenvalues --  7765.00123********************
           X            0.99750   0.07055  -0.00486
           Y           -0.07057   0.99750  -0.00462
           Z            0.00452   0.00495   0.99998
 This molecule is an asymmetric top.
 Rotational symmetry number  1.
 Warning -- assumption of classical behavior for rotation
           may cause significant error
 Rotational temperatures (Kelvin)      0.01115     0.00766     0.00701
 Rotational constants (GHZ):           0.23242     0.15959     0.14615
 Zero-point vibrational energy     953707.8 (Joules/Mol)
                                  227.94163 (Kcal/Mol)
 Warning -- explicit consideration of  41 degrees of freedom as
           vibrations may cause significant error
 Vibrational temperatures:     21.69    39.40    56.52    75.79    79.60
          (Kelvin)             90.14   108.09   114.52   122.65   126.56
                              140.69   162.20   165.36   169.03   186.99
                              218.28   246.96   283.80   302.30   317.14
                              327.33   360.31   376.51   384.72   397.46
                              441.35   459.87   501.79   507.24   536.51
                              565.72   586.56   589.49   601.68   608.41
                              634.74   676.60   737.65   783.52   802.96
                              889.08   907.83   963.45   997.27  1016.09
                             1078.84  1100.02  1122.43  1159.84  1166.19
                             1193.40  1214.66  1234.72  1261.85  1322.48
                             1337.55  1359.20  1365.97  1399.36  1408.10
                             1424.63  1425.61  1434.43  1458.40  1460.85
                             1485.57  1505.47  1520.19  1525.58  1597.30
                             1604.37  1608.22  1635.64  1646.43  1683.50
                             1686.11  1690.18  1704.57  1733.93  1747.47
                             1775.93  1808.65  1828.67  1853.90  1865.21
                             1885.95  1896.30  1906.89  1927.28  1957.69
                             1964.37  1969.73  2000.52  2021.75  2039.21
                             2042.84  2115.44  2119.10  2120.53  2134.43
                             2135.32  2146.64  2148.09  2162.73  2168.25
                             2182.44  2196.43  2345.90  2379.22  2549.93
                             4374.79  4378.67  4388.63  4402.57  4412.42
                             4422.27  4426.80  4465.16  4470.36  4483.23
                             4488.94  4489.26  4501.22  4506.49  4516.57
                             4521.24  4542.94  4563.34  4576.07  4589.05
                             4602.21  4652.90

 Zero-point correction=                           0.363248 (Hartree/Particle)
 Thermal correction to Energy=                    0.389898
 Thermal correction to Enthalpy=                  0.390842
 Thermal correction to Gibbs Free Energy=         0.302300
 Sum of electronic and zero-point Energies=          -3531.203534
 Sum of electronic and thermal Energies=             -3531.176884
 Sum of electronic and thermal Enthalpies=           -3531.175940
 Sum of electronic and thermal Free Energies=        -3531.264482

                     E (Thermal)             CV                S
                      KCal/Mol        Cal/Mol-Kelvin    Cal/Mol-Kelvin
 Total                  244.665             96.469            186.354
 Electronic               0.000              0.000              3.561
 Translational            0.889              2.981             44.100
 Rotational               0.889              2.981             35.338
 Vibrational            242.887             90.507            103.355
 Vibration     1          0.593              1.986              7.195
 Vibration     2          0.593              1.984              6.010
 Vibration     3          0.594              1.981              5.295
 Vibration     4          0.596              1.977              4.714
 Vibration     5          0.596              1.975              4.617
 Vibration     6          0.597              1.972              4.372
 Vibration     7          0.599              1.966              4.014
 Vibration     8          0.600              1.963              3.901
 Vibration     9          0.601              1.959              3.766
 Vibration    10          0.601              1.958              3.705
 Vibration    11          0.603              1.951              3.498
 Vibration    12          0.607              1.939              3.221
 Vibration    13          0.608              1.937              3.184
 Vibration    14          0.608              1.935              3.141
 Vibration    15          0.612              1.923              2.947
 Vibration    16          0.619              1.901              2.651
 Vibration    17          0.626              1.877              2.417
 Vibration    18          0.637              1.844              2.159
 Vibration    19          0.642              1.825              2.043
 Vibration    20          0.647              1.810              1.956
 Vibration    21          0.651              1.799              1.899
 Vibration    22          0.663              1.762              1.728
 Vibration    23          0.669              1.743              1.650
 Vibration    24          0.672              1.733              1.613
 Vibration    25          0.678              1.717              1.557
 Vibration    26          0.697              1.661              1.380
 Vibration    27          0.706              1.636              1.312
 Vibration    28          0.726              1.578              1.172
 Vibration    29          0.729              1.570              1.155
 Vibration    30          0.744              1.528              1.068
 Vibration    31          0.760              1.485              0.988
 Vibration    32          0.772              1.454              0.935
 Vibration    33          0.774              1.449              0.928
 Vibration    34          0.781              1.431              0.898
 Vibration    35          0.785              1.421              0.882
 Vibration    36          0.801              1.380              0.823
 Vibration    37          0.827              1.316              0.737
 Vibration    38          0.868              1.222              0.627
 Vibration    39          0.900              1.152              0.556
 Vibration    40          0.914              1.122              0.528
 Vibration    41          0.978              0.994              0.420

 Optimization completed.
    -- Stationary point found.
 Normal termination of Gaussian 16 at Fri Jun  4 21:18:39 2021.
