 Gaussian 16, Revision A.03,
 Gaussian 16:  ES64L-G16RevA.03 25-Dec-2016

 ----------------------------------------------------------------------
 #p opt=(calcfc,ts,noeigentest,maxstep=5) freq=noraman ub3lyp empirical
 dispersion=gd3bj jul-cc-pvdz pop=cm5
 ----------------------------------------------------------------------

 -----
 title
 -----
 Symbolic Z-matrix:
 Charge =  0 Multiplicity = 6

 SCF Done:  E(UB3LYP) =  -3531.52728419     A.U. after   25 cycles
 Optimization completed.
    -- Stationary point found.
 Normal termination of Gaussian 16 at Thu Jun 24 21:22:10 2021.

 ----------------------------------------------------------------------
 #P Geom=AllCheck Guess=TCheck SCRF=Check GenChk UB3LYP/Jul-CC-pVDZ Fre
 q
 ----------------------------------------------------------------------

 Structure from the checkpoint file:  "/scratch/kwaneu.2929504.bmbhpcps002/Gau-73066.chk"
 -----
 title
 -----
 Charge =  0 Multiplicity = 6

                         Standard orientation:
 ---------------------------------------------------------------------
 Center     Atomic      Atomic             Coordinates (Angstroms)
 Number     Number       Type             X           Y           Z
 ---------------------------------------------------------------------
      1          6           0        2.433180    1.502722    0.730845
      2          6           0        1.141647    1.292722    0.222947
      3          6           0        0.397366    2.400009   -0.204471
      4          6           0        0.933988    3.688075   -0.127088
      5          6           0        2.217157    3.889298    0.383967
      6          6           0        2.966448    2.788816    0.813045
      7          6           0        0.534156   -0.092572    0.064072
      8          6           0        1.071119   -0.911411   -1.155056
      9          6           0        0.723598   -2.367364   -0.802897
     10          6           0        1.005348   -2.515148    0.706719
     11          6           0        0.868471   -1.113320    1.329851
     12          6           0       -0.231713   -0.833050    2.241941
     13          6           0       -0.280386    0.436215    2.970757
     14          8           0       -0.833341   -0.030797   -0.022414
     15         26           0       -2.606093    0.004640   -0.480974
     16         17           0       -2.888175    1.217126   -2.297830
     17          6           0       -1.354557   -1.760951    2.408806
     18         17           0       -3.540157    0.906786    1.359075
     19         17           0       -3.191371   -2.148038   -0.694411
     20          1           0       -0.599806    2.252497   -0.611211
     21          1           0        0.339636    4.535566   -0.469559
     22          1           0        2.633341    4.895223    0.448599
     23          1           0        3.970357    2.932530    1.214442
     24          1           0        3.039046    0.661717    1.062912
     25          1           0        0.513345   -0.544224   -2.022985
     26          6           0        2.532136   -0.673126   -1.469810
     27          1           0       -0.341418   -2.522814   -1.009210
     28          1           0        1.292808   -3.088826   -1.400714
     29          1           0        0.335031   -3.251412    1.162724
     30          1           0        2.029959   -2.861536    0.874198
     31          1           0        1.804738   -0.754310    1.767013
     32          1           0       -1.677176   -2.174228    1.440205
     33          1           0       -2.202051   -1.306274    2.929005
     34          1           0       -0.978410   -2.621092    2.994078
     35          1           0       -0.622180    0.273655    4.003840
     36          1           0        0.638343    1.023581    2.928181
     37          1           0       -1.115560    0.992388    2.488095
     38          8           0        3.358937   -1.223917   -0.544512
     39          8           0        2.933875   -0.063857   -2.434215
     40          6           0        4.775454   -0.986988   -0.747388
     41          6           0        5.507766   -1.585136    0.435512
     42          1           0        5.071975   -1.448678   -1.698261
     43          1           0        4.934468    0.095905   -0.835824
     44          1           0        6.589287   -1.433114    0.313782
     45          1           0        5.197856   -1.106836    1.375684
     46          1           0        5.316960   -2.664389    0.512781
 ---------------------------------------------------------------------

 SCF Done:  E(UB3LYP) =  -3531.52728419     A.U. after    2 cycles

 The electronic state is 6-A.
 Alpha  occ. eigenvalues -- -256.17948-101.49883-101.49822-101.49611 -30.17373
 Alpha  occ. eigenvalues --  -26.02687 -26.02599 -26.02519 -19.21284 -19.15443
 Alpha  occ. eigenvalues --  -19.15184 -10.34011 -10.33122 -10.30816 -10.26499
 Alpha  occ. eigenvalues --  -10.24956 -10.24275 -10.23867 -10.22423 -10.22102
 Alpha  occ. eigenvalues --  -10.22004 -10.21548 -10.21445 -10.21190 -10.21188
 Alpha  occ. eigenvalues --  -10.20931 -10.20883 -10.20628  -9.41580  -9.41514
 Alpha  occ. eigenvalues --   -9.41320  -7.17449  -7.17389  -7.17185  -7.17130
 Alpha  occ. eigenvalues --   -7.17111  -7.17055  -7.17048  -7.16879  -7.16861
 Alpha  occ. eigenvalues --   -3.65144  -2.42757  -2.42438  -2.42329  -1.12836
 Alpha  occ. eigenvalues --   -1.04325  -1.04084  -0.90974  -0.88144  -0.85835
 Alpha  occ. eigenvalues --   -0.80304  -0.79090  -0.77734  -0.77332  -0.77054
 Alpha  occ. eigenvalues --   -0.76924  -0.76815  -0.76620  -0.73192  -0.67850
 Alpha  occ. eigenvalues --   -0.65805  -0.63209  -0.62846  -0.61054  -0.58906
 Alpha  occ. eigenvalues --   -0.58017  -0.55781  -0.54382  -0.53205  -0.52710
 Alpha  occ. eigenvalues --   -0.51369  -0.50400  -0.49628  -0.49280  -0.48107
 Alpha  occ. eigenvalues --   -0.47221  -0.46544  -0.46237  -0.45835  -0.45562
 Alpha  occ. eigenvalues --   -0.45361  -0.45142  -0.44771  -0.44681  -0.44054
 Alpha  occ. eigenvalues --   -0.43673  -0.43141  -0.42940  -0.42171  -0.41602
 Alpha  occ. eigenvalues --   -0.41064  -0.40678  -0.39106  -0.38754  -0.38205
 Alpha  occ. eigenvalues --   -0.37915  -0.37480  -0.37186  -0.36513  -0.36014
 Alpha  occ. eigenvalues --   -0.34322  -0.32884  -0.32721  -0.32576  -0.30175
 Alpha  occ. eigenvalues --   -0.29292  -0.28915  -0.28824  -0.28418  -0.28314
 Alpha  occ. eigenvalues --   -0.28135  -0.27655  -0.27347  -0.27068  -0.26850
 Alpha virt. eigenvalues --   -0.15559  -0.04248  -0.03694  -0.03370  -0.02030
 Alpha virt. eigenvalues --   -0.01765  -0.01121  -0.00361   0.00349   0.00693
 Alpha virt. eigenvalues --    0.01169   0.01283   0.01623   0.02320   0.02573

  Beta  occ. eigenvalues -- -256.17764-101.49716-101.49661-101.49416 -30.08457
  Beta  occ. eigenvalues --  -25.95191 -25.95171 -25.95147 -19.21283 -19.15439
  Beta  occ. eigenvalues --  -19.14456 -10.34004 -10.33120 -10.30781 -10.26499
  Beta  occ. eigenvalues --  -10.24933 -10.24273 -10.23868 -10.22406 -10.22082
  Beta  occ. eigenvalues --  -10.22005 -10.21545 -10.21444 -10.21191 -10.21188
  Beta  occ. eigenvalues --  -10.20931 -10.20882 -10.20631  -9.41415  -9.41355
  Beta  occ. eigenvalues --   -9.41129  -7.17156  -7.17098  -7.16918  -7.16892
  Beta  occ. eigenvalues --   -7.16878  -7.16860  -7.16835  -7.16604  -7.16597
  Beta  occ. eigenvalues --   -3.44373  -2.20689  -2.20605  -2.20588  -1.12832
  Beta  occ. eigenvalues --   -1.04086  -1.02953  -0.90808  -0.88090  -0.85737
  Beta  occ. eigenvalues --   -0.80296  -0.78974  -0.77380  -0.76873  -0.76802
  Beta  occ. eigenvalues --   -0.76456  -0.75830  -0.75565  -0.73086  -0.67704
  Beta  occ. eigenvalues --   -0.65716  -0.63130  -0.62822  -0.60798  -0.58829
  Beta  occ. eigenvalues --   -0.57675  -0.55665  -0.53998  -0.52933  -0.52293
  Beta  occ. eigenvalues --   -0.51237  -0.49652  -0.49429  -0.49234  -0.47969
  Beta  occ. eigenvalues --   -0.46954  -0.46472  -0.45959  -0.45171  -0.44597
  Beta  occ. eigenvalues --   -0.44138  -0.43676  -0.43160  -0.42393  -0.41912
  Beta  occ. eigenvalues --   -0.41125  -0.40867  -0.39093  -0.38743  -0.38194
  Beta  occ. eigenvalues --   -0.37886  -0.37464  -0.37150  -0.36486  -0.36060
  Beta  occ. eigenvalues --   -0.35447  -0.33317  -0.33165  -0.32812  -0.31860
  Beta  occ. eigenvalues --   -0.31285  -0.30582  -0.30270  -0.29953  -0.29469
  Beta  occ. eigenvalues --   -0.27920  -0.27703  -0.27314  -0.27175  -0.26676
  Beta virt. eigenvalues --   -0.15556  -0.11707  -0.11606  -0.10707  -0.10573
  Beta virt. eigenvalues --   -0.09785  -0.04209  -0.03658  -0.03343  -0.01993
  Beta virt. eigenvalues --   -0.01725  -0.01115  -0.00333   0.00353   0.00700

 Mulliken charges and spin densities:
               1          2
     1  C    0.010697   0.002653
     2  C    2.506218   0.006847
     3  C   -0.519936  -0.016653
     4  C    0.071082   0.004953
     5  C    0.257905   0.000383
     6  C   -0.220830   0.001286
     7  C   -2.176261  -0.022412
     8  C    1.001481   0.016431
     9  C    0.671021   0.000459
    10  C    0.399622   0.001779
    11  C    0.962927   0.018143
    12  C   -0.715048  -0.000924
    13  C    0.392070   0.000879
    14  O   -0.483761   0.244816
    15  Fe   0.705088   4.030978
    16  Cl  -0.430128   0.268322
    17  C    0.390756  -0.001818
    18  Cl  -0.517002   0.211246
    19  Cl  -0.504827   0.221640
    20  H   -0.245167   0.003486
    21  H   -0.162242  -0.000025
    22  H   -0.178464   0.000002
    23  H   -0.177915   0.000225
    24  H   -0.244340  -0.000046
    25  H   -0.246240  -0.000620
    26  C    0.507597   0.004785
    27  H   -0.063869   0.000284
    28  H   -0.170519   0.000006
    29  H   -0.098809   0.000107
    30  H   -0.105052   0.000012
    31  H   -0.187896  -0.000150
    32  H    0.175985   0.001519
    33  H    0.024562  -0.000201
    34  H    0.040821  -0.000451
    35  H   -0.013280   0.000055
    36  H    0.036878   0.000108
    37  H    0.199759   0.000199
    38  O   -0.788213   0.000254
    39  O   -0.595861   0.001338
    40  C    0.470111   0.000098
    41  C    0.105404  -0.000016
    42  H   -0.050874   0.000020
    43  H   -0.035359  -0.000005
    44  H   -0.018068   0.000008
    45  H    0.007479  -0.000002
    46  H    0.012499   0.000004
 Sum of Mulliken charges =  -0.00000   5.00000

 Dipole moment (field-independent basis, Debye):
    X=             10.0613    Y=             -2.5449    Z=              8.4111  Tot=             13.3586
 Quadrupole moment (field-independent basis, Debye-Ang):
   XX=           -190.3277   YY=           -167.7870   ZZ=           -174.3852
   XY=             -1.8457   XZ=              0.6928   YZ=             -3.0666

  Exact polarizability: 328.696  12.033 304.452   4.948 -11.090 261.225
 Approx polarizability: 462.187  13.143 484.214  11.375 -29.396 435.056

 ******    1 imaginary frequencies (negative Signs) ******

                      1                      2                      3
                      A                      A                      A
 Frequencies --   -189.3482                21.1692                24.8650
 Red. masses --      5.3881                 5.4728                 8.0573
 Frc consts  --      0.1138                 0.0014                 0.0029
 IR Inten    --     26.7158                 0.3896                 0.1374

                      4                      5                      6
                      A                      A                      A
 Frequencies --     29.4635                35.0206                45.9874
 Red. masses --      6.3544                 5.2325                 3.8943
 Frc consts  --      0.0033                 0.0038                 0.0049
 IR Inten    --      0.7191                 0.1181                 0.9742

                      7                      8                      9
                      A                      A                      A
 Frequencies --     55.7917                65.3479                81.9899
 Red. masses --      5.2668                 5.6540                 3.2971
 Frc consts  --      0.0097                 0.0142                 0.0131
 IR Inten    --      0.2561                 0.8889                 1.5499

                     10                     11                     12
                      A                      A                      A
 Frequencies --     87.7984                91.4498                93.8356
 Red. masses --      4.3122                 9.2869                 2.6044
 Frc consts  --      0.0196                 0.0458                 0.0135
 IR Inten    --      2.3171                 2.5473                 1.3904

                     13                     14                     15
                      A                      A                      A
 Frequencies --    102.3567               113.6126               118.4191
 Red. masses --      9.3555                 4.7641                 4.4473
 Frc consts  --      0.0577                 0.0362                 0.0367
 IR Inten    --      2.8554                 2.9640                 1.2841

                     16                     17                     18
                      A                      A                      A
 Frequencies --    123.4142               132.4644               160.3510
 Red. masses --      8.2841                 4.9039                 3.1008
 Frc consts  --      0.0743                 0.0507                 0.0470
 IR Inten    --      3.8446                 1.4103                 0.6529

                     19                     20                     21
                      A                      A                      A
 Frequencies --    176.4416               188.1178               197.3937
 Red. masses --      1.6325                 2.5330                 2.7514
 Frc consts  --      0.0299                 0.0528                 0.0632
 IR Inten    --      0.8784                 1.3827                12.5971

                     22                     23                     24
                      A                      A                      A
 Frequencies --    216.5033               237.9807               255.6898
 Red. masses --      2.6246                 1.7206                 1.9173
 Frc consts  --      0.0725                 0.0574                 0.0739
 IR Inten    --     17.1329                 2.6829                 3.3876

                     25                     26                     27
                      A                      A                      A
 Frequencies --    268.3506               278.2643               298.7219
 Red. masses --      3.4708                 2.8204                 4.8840
 Frc consts  --      0.1473                 0.1287                 0.2568
 IR Inten    --      3.1643                 1.7382                 5.1579

                     28                     29                     30
                      A                      A                      A
 Frequencies --    312.7479               320.3988               332.1471
 Red. masses --      4.9107                 2.8187                 7.4459
 Frc consts  --      0.2830                 0.1705                 0.4840
 IR Inten    --      4.3880                 4.1760                24.8293

                     31                     32                     33
                      A                      A                      A
 Frequencies --    341.2407               364.0942               376.1243
 Red. masses --      6.1979                27.6189                 3.9560
 Frc consts  --      0.4252                 2.1572                 0.3297
 IR Inten    --     44.3590                74.7992                12.4556

                     34                     35                     36
                      A                      A                      A
 Frequencies --    397.3788               401.6666               414.2973
 Red. masses --     29.7907                 3.3335                 2.9666
 Frc consts  --      2.7717                 0.3169                 0.3000
 IR Inten    --     91.9248                 7.0571                 0.1756

                     37                     38                     39
                      A                      A                      A
 Frequencies --    418.2758               489.3326               496.0087
 Red. masses --      3.4494                 2.4883                 2.9909
 Frc consts  --      0.3556                 0.3510                 0.4335
 IR Inten    --      0.8814                 1.5665                 5.7149

                     40                     41                     42
                      A                      A                      A
 Frequencies --    526.3958               599.9518               629.9051
 Red. masses --      3.3092                 5.3233                 6.1614
 Frc consts  --      0.5402                 1.1289                 1.4404
 IR Inten    --      4.5663                26.5954                 8.9791

                     43                     44                     45
                      A                      A                      A
 Frequencies --    645.9073               659.2259               676.5140
 Red. masses --      3.6728                 3.1080                 5.2604
 Frc consts  --      0.9028                 0.7958                 1.4185
 IR Inten    --     51.1374                38.0741                 9.3087

                     46                     47                     48
                      A                      A                      A
 Frequencies --    707.6170               737.9521               750.0097
 Red. masses --      1.6711                 2.4952                 2.5213
 Frc consts  --      0.4930                 0.8006                 0.8356
 IR Inten    --     39.1077                43.2612                10.7795

                     49                     50                     51
                      A                      A                      A
 Frequencies --    771.7700               799.5915               805.8898
 Red. masses --      2.9547                 2.1420                 1.4961
 Frc consts  --      1.0369                 0.8069                 0.5725
 IR Inten    --      5.2229                21.4800                12.0791

                     52                     53                     54
                      A                      A                      A
 Frequencies --    809.4823               849.7029               857.7600
 Red. masses --      1.3612                 1.3032                 3.0052
 Frc consts  --      0.5255                 0.5544                 1.3027
 IR Inten    --      5.6603                 1.1385                 3.8808

                     55                     56                     57
                      A                      A                      A
 Frequencies --    860.1842               904.7811               918.5833
 Red. masses --      2.5140                 2.9410                 2.8301
 Frc consts  --      1.0960                 1.4185                 1.4070
 IR Inten    --     16.6419                24.0246                 9.5695

                     58                     59                     60
                      A                      A                      A
 Frequencies --    933.2647               955.2436               968.8169
 Red. masses --      1.4937                 2.6907                 2.0577
 Frc consts  --      0.7665                 1.4466                 1.1379
 IR Inten    --      5.6610                 8.5583                38.0221

                     61                     62                     63
                      A                      A                      A
 Frequencies --    984.4905               993.1170               998.0900
 Red. masses --      1.3558                 1.8801                 2.1350
 Frc consts  --      0.7742                 1.0925                 1.2531
 IR Inten    --      0.6894                10.9240                27.4562

                     64                     65                     66
                      A                      A                      A
 Frequencies --   1003.0755              1012.9124              1013.7136
 Red. masses --      1.5514                 1.8932                 2.6258
 Frc consts  --      0.9197                 1.1444                 1.5898
 IR Inten    --      1.6536                20.5544                 0.9915

                     67                     68                     69
                      A                      A                      A
 Frequencies --   1030.7635              1052.3215              1057.4248
 Red. masses --      2.1270                 2.4861                 2.4887
 Frc consts  --      1.3315                 1.6221                 1.6396
 IR Inten    --     21.2169                28.3931                83.7360

                     70                     71                     72
                      A                      A                      A
 Frequencies --   1072.8340              1087.5704              1108.9549
 Red. masses --      2.3601                 2.0280                 1.7277
 Frc consts  --      1.6005                 1.4133                 1.2519
 IR Inten    --     51.0515                48.6589                14.4570

                     73                     74                     75
                      A                      A                      A
 Frequencies --   1114.1077              1130.5856              1165.4620
 Red. masses --      2.0685                 2.1842                 2.0523
 Frc consts  --      1.5127                 1.6450                 1.6424
 IR Inten    --     92.7005                10.3012               221.4923

                     76                     77                     78
                      A                      A                      A
 Frequencies --   1170.2324              1171.5455              1175.4759
 Red. masses --      1.5430                 1.5348                 1.0850
 Frc consts  --      1.2450                 1.2411                 0.8833
 IR Inten    --      4.9577                 6.1058                 1.1261

                     79                     80                     81
                      A                      A                      A
 Frequencies --   1205.1553              1208.0224              1233.1376
 Red. masses --      1.1393                 1.6314                 2.3253
 Frc consts  --      0.9749                 1.4027                 2.0833
 IR Inten    --      4.7714                13.2169                88.6557

                     82                     83                     84
                      A                      A                      A
 Frequencies --   1250.5326              1269.6445              1279.0352
 Red. masses --      2.4595                 1.5134                 2.0994
 Frc consts  --      2.2662                 1.4374                 2.0235
 IR Inten    --    242.5560                13.6882               148.9143

                     85                     86                     87
                      A                      A                      A
 Frequencies --   1283.9706              1307.8545              1317.9536
 Red. masses --      1.1281                 1.3501                 1.3815
 Frc consts  --      1.0957                 1.3606                 1.4139
 IR Inten    --      9.5135                33.1193                12.9518

                     88                     89                     90
                      A                      A                      A
 Frequencies --   1330.0695              1333.3097              1346.6593
 Red. masses --      1.4345                 1.6590                 1.1686
 Frc consts  --      1.4952                 1.7377                 1.2486
 IR Inten    --     11.3213                 1.8701                15.7352

                     91                     92                     93
                      A                      A                      A
 Frequencies --   1356.5827              1361.2077              1373.9481
 Red. masses --      1.3313                 3.3763                 1.5801
 Frc consts  --      1.4435                 3.6858                 1.7575
 IR Inten    --     15.0771                 2.0092                33.6066

                     94                     95                     96
                      A                      A                      A
 Frequencies --   1380.5631              1401.9580              1414.8906
 Red. masses --      1.3294                 1.5145                 1.4369
 Frc consts  --      1.4929                 1.7538                 1.6948
 IR Inten    --      9.5206                91.6467                 8.7276

                     97                     98                     99
                      A                      A                      A
 Frequencies --   1420.2435              1448.1023              1471.0205
 Red. masses --      1.1418                 1.2733                 2.2821
 Frc consts  --      1.3569                 1.5732                 2.9096
 IR Inten    --     21.2389                 7.1912                16.8894

                    100                    101                    102
                      A                      A                      A
 Frequencies --   1476.6020              1481.0058              1485.9881
 Red. masses --      1.0416                 1.1347                 1.0536
 Frc consts  --      1.3380                 1.4664                 1.3708
 IR Inten    --      5.2285                 6.8240                 2.8352

                    103                    104                    105
                      A                      A                      A
 Frequencies --   1490.7343              1498.5916              1507.2031
 Red. masses --      1.1753                 1.3531                 1.1959
 Frc consts  --      1.5389                 1.7904                 1.6006
 IR Inten    --      8.2565                18.2699                14.4200

                    106                    107                    108
                      A                      A                      A
 Frequencies --   1510.7980              1520.1198              1625.6801
 Red. masses --      1.0926                 2.2057                 5.7925
 Frc consts  --      1.4694                 3.0030                 9.0197
 IR Inten    --      5.7324                 4.3559                 0.1538

                    109                    110                    111
                      A                      A                      A
 Frequencies --   1646.0605              1788.5904              2915.7906
 Red. masses --      5.8263                11.6724                 1.0609
 Frc consts  --      9.3011                22.0005                 5.3142
 IR Inten    --      0.7726               222.8327                73.0324

                    112                    113                    114
                      A                      A                      A
 Frequencies --   2992.1366              3036.5558              3046.9651
 Red. masses --      1.0442                 1.0355                 1.0914
 Frc consts  --      5.5083                 5.6256                 5.9702
 IR Inten    --     49.0707                13.4429                44.9118

                    115                    116                    117
                      A                      A                      A
 Frequencies --   3063.5413              3066.3682              3075.0908
 Red. masses --      1.0583                 1.0717                 1.0606
 Frc consts  --      5.8522                 5.9369                 5.9093
 IR Inten    --     13.6512                 2.1994                17.9678

                    118                    119                    120
                      A                      A                      A
 Frequencies --   3089.5921              3100.3512              3112.3936
 Red. masses --      1.0611                 1.1049                 1.0852
 Frc consts  --      5.9679                 6.2573                 6.1937
 IR Inten    --     24.0877                 1.3894                 0.2221

                    121                    122                    123
                      A                      A                      A
 Frequencies --   3113.5605              3117.4432              3122.6801
 Red. masses --      1.0873                 1.1016                 1.1040
 Frc consts  --      6.2105                 6.3075                 6.3425
 IR Inten    --      3.0463                28.7483                 6.2937

                    124                    125                    126
                      A                      A                      A
 Frequencies --   3125.1432              3139.3883              3163.6028
 Red. masses --      1.1066                 1.1045                 1.0998
 Frc consts  --      6.3679                 6.4139                 6.4851
 IR Inten    --     33.0655                 8.4812                 5.3744

                    127                    128                    129
                      A                      A                      A
 Frequencies --   3170.6030              3182.6262              3184.4696
 Red. masses --      1.0854                 1.0895                 1.1012
 Frc consts  --      6.4285                 6.5023                 6.5796
 IR Inten    --      1.4060                 7.7780                 3.8463

                    130                    131                    132
                      A                      A                      A
 Frequencies --   3194.6130              3200.8714              3224.1164
 Red. masses --      1.0935                 1.0958                 1.0927
 Frc consts  --      6.5751                 6.6147                 6.6923
 IR Inten    --     16.6777                 7.0345                 6.2052

 - Thermochemistry -
 -------------------
 Temperature   298.150 Kelvin.  Pressure   1.00000 Atm.
 Atom     1 has atomic number  6 and mass  12.00000

 Molecular mass:   434.99839 amu.
 Principal axes and moments of inertia in atomic units:
                           1         2         3
     Eigenvalues --  7126.00816********************
           X            0.99996  -0.00758  -0.00432
           Y            0.00752   0.99987  -0.01458
           Z            0.00443   0.01455   0.99988
 This molecule is an asymmetric top.
 Rotational symmetry number  1.
 Warning -- assumption of classical behavior for rotation
           may cause significant error
 Rotational temperatures (Kelvin)      0.01215     0.00634     0.00571
 Rotational constants (GHZ):           0.25326     0.13206     0.11908
    1 imaginary frequencies ignored.
 Zero-point vibrational energy     941095.5 (Joules/Mol)
                                  224.92722 (Kcal/Mol)
 Warning -- explicit consideration of  40 degrees of freedom as
           vibrations may cause significant error
 Vibrational temperatures:     30.46    35.78    42.39    50.39    66.17
          (Kelvin)             80.27    94.02   117.97   126.32   131.58
                              135.01   147.27   163.46   170.38   177.57
                              190.59   230.71   253.86   270.66   284.01
                              311.50   342.40   367.88   386.10   400.36
                              429.79   449.97   460.98   477.89   490.97
                              523.85   541.16   571.74   577.91   596.08
                              601.81   704.04   713.65   757.37   863.20
                              906.29   929.32   948.48   973.35  1018.10
                             1061.75  1079.10  1110.40  1150.43  1159.50
                             1164.66  1222.53  1234.13  1237.61  1301.78
                             1321.64  1342.76  1374.38  1393.91  1416.46
                             1428.87  1436.03  1443.20  1457.36  1458.51
                             1483.04  1514.06  1521.40  1543.57  1564.77
                             1595.54  1602.95  1626.66  1676.84  1683.70
                             1685.59  1691.25  1733.95  1738.07  1774.21
                             1799.24  1826.74  1840.25  1847.35  1881.71
                             1896.24  1913.67  1918.34  1937.54  1951.82
                             1958.47  1976.80  1986.32  2017.10  2035.71
                             2043.41  2083.50  2116.47  2124.50  2130.84
                             2138.01  2144.83  2156.14  2168.53  2173.70
                             2187.11  2338.99  2368.31  2573.38  4195.17
                             4305.02  4368.93  4383.90  4407.75  4411.82
                             4424.37  4445.23  4460.71  4478.04  4479.72
                             4485.31  4492.84  4496.38  4516.88  4551.72
                             4561.79  4579.09  4581.74  4596.34  4605.34
                             4638.78

 Zero-point correction=                           0.358444 (Hartree/Particle)
 Thermal correction to Energy=                    0.385641
 Thermal correction to Enthalpy=                  0.386585
 Thermal correction to Gibbs Free Energy=         0.295979
 Sum of electronic and zero-point Energies=          -3531.168840
 Sum of electronic and thermal Energies=             -3531.141643
 Sum of electronic and thermal Enthalpies=           -3531.140699
 Sum of electronic and thermal Free Energies=        -3531.231305

                     E (Thermal)             CV                S
                      KCal/Mol        Cal/Mol-Kelvin    Cal/Mol-Kelvin
 Total                  241.993             97.088            190.696
 Electronic               0.000              0.000              3.561
 Translational            0.889              2.981             44.100
 Rotational               0.889              2.981             35.644
 Vibrational            240.216             91.126            107.391
 Vibration     1          0.593              1.985              6.521
 Vibration     2          0.593              1.985              6.202
 Vibration     3          0.593              1.984              5.865
 Vibration     4          0.594              1.982              5.523
 Vibration     5          0.595              1.979              4.983
 Vibration     6          0.596              1.975              4.601
 Vibration     7          0.597              1.971              4.289
 Vibration     8          0.600              1.961              3.843
 Vibration     9          0.601              1.958              3.709
 Vibration    10          0.602              1.955              3.629
 Vibration    11          0.603              1.954              3.578
 Vibration    12          0.604              1.947              3.409
 Vibration    13          0.607              1.938              3.206
 Vibration    14          0.609              1.934              3.126
 Vibration    15          0.610              1.929              3.046
 Vibration    16          0.613              1.921              2.910
 Vibration    17          0.622              1.891              2.546
 Vibration    18          0.628              1.871              2.366
 Vibration    19          0.633              1.856              2.246
 Vibration    20          0.637              1.844              2.157
 Vibration    21          0.645              1.816              1.988
 Vibration    22          0.656              1.782              1.818
 Vibration    23          0.666              1.753              1.691
 Vibration    24          0.673              1.731              1.607
 Vibration    25          0.679              1.714              1.544
 Vibration    26          0.692              1.676              1.424
 Vibration    27          0.701              1.649              1.348
 Vibration    28          0.706              1.635              1.308
 Vibration    29          0.714              1.611              1.250
 Vibration    30          0.721              1.593              1.206
 Vibration    31          0.738              1.546              1.105
 Vibration    32          0.747              1.521              1.055
 Vibration    33          0.764              1.476              0.972
 Vibration    34          0.767              1.467              0.957
 Vibration    35          0.778              1.439              0.912
 Vibration    36          0.781              1.431              0.898
 Vibration    37          0.845              1.274              0.685
 Vibration    38          0.852              1.259              0.668
 Vibration    39          0.881              1.192              0.595
 Vibration    40          0.958              1.032              0.450

 Optimization completed.
    -- Stationary point found.
 Normal termination of Gaussian 16 at Fri Jun 25 01:05:49 2021.
