 Gaussian 16, Revision A.03,
 Gaussian 16:  ES64L-G16RevA.03 25-Dec-2016

 ----------------------------------------------------------------------
 #p opt=(ts,noeigentest,calcfc) freq=noraman b3lyp jul-cc-pvdz pop=none
  empiricaldispersion=gd3bj
 ----------------------------------------------------------------------

 -----
 title
 -----
 Symbolic Z-matrix:
 Charge =  0 Multiplicity = 6

 SCF Done:  E(UB3LYP) =  -3531.52909798     A.U. after   25 cycles
 Optimization completed.
    -- Stationary point found.
 Normal termination of Gaussian 16 at Thu Jun  3 00:15:14 2021.

 ----------------------------------------------------------------------
 #P Geom=AllCheck Guess=TCheck SCRF=Check GenChk UB3LYP/Jul-CC-pVDZ Fre
 q
 ----------------------------------------------------------------------

 Structure from the checkpoint file:  "/scratch/kwaneu.2863102.bmbhpcps002/Gau-37748.chk"
 -----
 title
 -----
 Charge =  0 Multiplicity = 6

                         Standard orientation:
 ---------------------------------------------------------------------
 Center     Atomic      Atomic             Coordinates (Angstroms)
 Number     Number       Type             X           Y           Z
 ---------------------------------------------------------------------
      1          6           0        2.226091    0.520649   -1.330203
      2          6           0        2.694324    0.126341   -0.056378
      3          6           0        3.918661   -0.575848    0.047983
      4          6           0        4.678740   -0.832518   -1.085867
      5          6           0        4.196308   -0.450853   -2.345182
      6          6           0        2.965296    0.203578   -2.464369
      7          6           0        1.899735    0.338956    1.121255
      8          6           0        1.193477    1.607903    1.507202
      9          6           0        0.276773    1.223888    2.681990
     10          6           0        1.049009    0.065804    3.331588
     11          6           0        1.655405   -0.652430    2.124233
     12          6           0        0.432166   -1.644228    1.225122
     13          6           0        1.236482   -2.705007    0.486883
     14          8           0       -0.232604   -0.817210    0.380274
     15         26           0       -1.821177   -0.886381   -0.590065
     16         17           0       -2.151082   -3.019429   -1.117828
     17          6           0       -0.464746   -2.250775    2.295856
     18         17           0       -1.444210    0.409929   -2.371493
     19         17           0       -3.417911   -0.136577    0.765583
     20          1           0        4.281318   -0.880764    1.029021
     21          1           0        5.637522   -1.342782   -0.996185
     22          1           0        4.779856   -0.675447   -3.238927
     23          1           0        2.573856    0.466182   -3.446573
     24          1           0        1.249938    0.979844   -1.442302
     25          1           0        2.061263    2.170542    1.916466
     26          6           0        0.655858    2.542968    0.426291
     27          1           0        0.108583    2.071092    3.355636
     28          1           0       -0.691166    0.893566    2.291807
     29          1           0        1.865200    0.449080    3.965230
     30          1           0        0.428731   -0.578592    3.959343
     31          1           0        2.434252   -1.397378    2.297432
     32          1           0        0.105736   -2.786130    3.065379
     33          1           0       -1.111376   -1.497087    2.754187
     34          1           0       -1.114700   -2.971627    1.778647
     35          1           0        1.797292   -3.344937    1.180643
     36          1           0        0.511268   -3.321469   -0.061561
     37          1           0        1.919176   -2.269473   -0.248068
     38          8           0       -0.670435    2.551864    0.397890
     39          8           0        1.384184    3.220880   -0.269999
     40          6           0       -1.290782    3.452664   -0.576399
     41          6           0       -2.782599    3.417850   -0.341396
     42          1           0       -0.854420    4.448914   -0.429657
     43          1           0       -1.020442    3.087265   -1.573264
     44          1           0       -3.270635    4.087317   -1.064010
     45          1           0       -3.175383    2.404111   -0.477992
     46          1           0       -3.031173    3.759079    0.673017
 ---------------------------------------------------------------------

 SCF Done:  E(UB3LYP) =  -3531.52909798     A.U. after    1 cycles

 Isotropic polarizability for W=    0.000000      302.72 Bohr**3.
 End of Minotr F.D. properties file   721 does not exist.

 ******    1 imaginary frequencies (negative Signs) ******

                      1                      2                      3
                      A                      A                      A
 Frequencies --   -284.8822                20.0263                26.3881
 Red. masses --      8.5348                 8.2592                 6.3725
 Frc consts  --      0.4081                 0.0020                 0.0026
 IR Inten    --    426.3320                 0.4005                 0.5538

                      4                      5                      6
                      A                      A                      A
 Frequencies --     42.8774                48.6132                58.3372
 Red. masses --      7.5051                 8.8551                 4.6826
 Frc consts  --      0.0081                 0.0123                 0.0094
 IR Inten    --      1.5282                 3.0081                 0.4410

                      7                      8                      9
                      A                      A                      A
 Frequencies --     61.3893                66.6362                74.9884
 Red. masses --      4.3586                 4.6375                 6.6564
 Frc consts  --      0.0097                 0.0121                 0.0221
 IR Inten    --      1.1336                 1.4350                 0.7826

                     10                     11                     12
                      A                      A                      A
 Frequencies --     87.6033                95.9983               106.2940
 Red. masses --      5.0139                 8.6749                 7.6573
 Frc consts  --      0.0227                 0.0471                 0.0510
 IR Inten    --      0.4651                 4.6477                 0.6528

                     13                     14                     15
                      A                      A                      A
 Frequencies --    107.1954               121.4552               137.7679
 Red. masses --     12.8936                 4.3880                 4.5486
 Frc consts  --      0.0873                 0.0381                 0.0509
 IR Inten    --     10.5358                 2.8381                 0.4579

                     16                     17                     18
                      A                      A                      A
 Frequencies --    140.4774               143.8270               163.4472
 Red. masses --      4.4474                 5.6645                 3.1809
 Frc consts  --      0.0517                 0.0690                 0.0501
 IR Inten    --      3.4924                 0.7834                 2.1900

                     19                     20                     21
                      A                      A                      A
 Frequencies --    185.4302               206.5326               215.1702
 Red. masses --      3.1575                 3.4430                 3.5916
 Frc consts  --      0.0640                 0.0865                 0.0980
 IR Inten    --      3.9359                 5.2006                13.9465

                     22                     23                     24
                      A                      A                      A
 Frequencies --    247.1623               255.8503               258.4590
 Red. masses --      2.1962                 1.4041                 1.8914
 Frc consts  --      0.0790                 0.0542                 0.0744
 IR Inten    --     22.5444                 2.9056                 2.9601

                     25                     26                     27
                      A                      A                      A
 Frequencies --    270.8001               282.4906               302.1774
 Red. masses --      3.6598                 2.4737                 1.7096
 Frc consts  --      0.1581                 0.1163                 0.0920
 IR Inten    --      5.8298                 3.8087                 4.6749

                     28                     29                     30
                      A                      A                      A
 Frequencies --    334.1680               340.8539               354.2127
 Red. masses --      5.9480                 2.9293                 3.0760
 Frc consts  --      0.3913                 0.2005                 0.2274
 IR Inten    --      8.8321                 8.6126                 1.0002

                     31                     32                     33
                      A                      A                      A
 Frequencies --    377.0360               381.5012               382.1351
 Red. masses --      3.3772                32.7932                22.4703
 Frc consts  --      0.2829                 2.8121                 1.9333
 IR Inten    --      5.3347                79.1057                90.3754

                     34                     35                     36
                      A                      A                      A
 Frequencies --    389.4537               393.7122               413.2517
 Red. masses --      2.6379                 2.8627                 2.9665
 Frc consts  --      0.2357                 0.2614                 0.2985
 IR Inten    --      4.4053                39.7140                12.5547

                     37                     38                     39
                      A                      A                      A
 Frequencies --    446.3107               468.5116               489.6971
 Red. masses --      4.7430                 3.3305                 3.4451
 Frc consts  --      0.5566                 0.4307                 0.4868
 IR Inten    --      7.6869                18.5846                10.0621

                     40                     41                     42
                      A                      A                      A
 Frequencies --    508.4793               541.0902               565.5982
 Red. masses --      3.6734                 3.2115                 4.7120
 Frc consts  --      0.5596                 0.5540                 0.8881
 IR Inten    --     18.0731                11.9313                57.9389

                     43                     44                     45
                      A                      A                      A
 Frequencies --    621.8430               649.4967               664.1362
 Red. masses --      5.6567                 3.0897                 5.0620
 Frc consts  --      1.2888                 0.7679                 1.3155
 IR Inten    --      0.2469                 1.4732                 4.0404

                     46                     47                     48
                      A                      A                      A
 Frequencies --    687.8411               694.5239               768.3376
 Red. masses --      1.9395                 2.4245                 2.1852
 Frc consts  --      0.5407                 0.6890                 0.7601
 IR Inten    --     18.4268                35.7361                58.0371

                     49                     50                     51
                      A                      A                      A
 Frequencies --    793.3543               810.6183               820.9755
 Red. masses --      3.1424                 1.3349                 3.8211
 Frc consts  --      1.1653                 0.5168                 1.5174
 IR Inten    --     11.7611                 1.1247                18.0962

                     52                     53                     54
                      A                      A                      A
 Frequencies --    837.6165               854.3449               862.0521
 Red. masses --      1.2947                 3.8891                 2.8946
 Frc consts  --      0.5352                 1.6725                 1.2674
 IR Inten    --     25.0405                69.5260                22.0722

                     55                     56                     57
                      A                      A                      A
 Frequencies --    890.4906               918.6875               928.4927
 Red. masses --      1.8112                 1.9041                 1.4500
 Frc consts  --      0.8462                 0.9468                 0.7365
 IR Inten    --      2.0302               110.6040                 6.7122

                     58                     59                     60
                      A                      A                      A
 Frequencies --    940.4403               949.6971               968.0404
 Red. masses --      3.2359                 1.4409                 1.8082
 Frc consts  --      1.6862                 0.7657                 0.9984
 IR Inten    --      6.6277                 7.6407               171.1747

                     61                     62                     63
                      A                      A                      A
 Frequencies --    983.3660               989.3813               994.0711
 Red. masses --      1.4298                 1.5547                 1.3519
 Frc consts  --      0.8146                 0.8967                 0.7871
 IR Inten    --      7.0579                 0.8799                15.1820

                     64                     65                     66
                      A                      A                      A
 Frequencies --   1005.3951              1011.0288              1019.7136
 Red. masses --      3.5696                 1.4895                 2.4058
 Frc consts  --      2.1259                 0.8970                 1.4739
 IR Inten    --      3.6030                 0.3018                11.4747

                     67                     68                     69
                      A                      A                      A
 Frequencies --   1032.0217              1047.3667              1051.4196
 Red. masses --      2.0279                 2.2656                 2.1219
 Frc consts  --      1.2725                 1.4643                 1.3821
 IR Inten    --    121.4992                 8.6020                67.0105

                     70                     71                     72
                      A                      A                      A
 Frequencies --   1058.2191              1086.7610              1101.8673
 Red. masses --      1.9562                 1.5272                 1.6513
 Frc consts  --      1.2907                 1.0627                 1.1813
 IR Inten    --     46.9484                28.5160                26.0259

                     73                     74                     75
                      A                      A                      A
 Frequencies --   1124.8583              1137.5843              1166.8851
 Red. masses --      1.7948                 2.1344                 1.7932
 Frc consts  --      1.3380                 1.6274                 1.4386
 IR Inten    --     20.1699                 7.7525                 4.9251

                     76                     77                     78
                      A                      A                      A
 Frequencies --   1169.4114              1179.7349              1180.8537
 Red. masses --      1.6114                 1.1527                 1.3008
 Frc consts  --      1.2983                 0.9452                 1.0687
 IR Inten    --      4.3958                 7.0350                 4.9515

                     79                     80                     81
                      A                      A                      A
 Frequencies --   1200.9097              1209.5106              1214.7259
 Red. masses --      1.6730                 1.2086                 2.9235
 Frc consts  --      1.4216                 1.0417                 2.5416
 IR Inten    --      8.3146                 6.1894                17.5412

                     82                     83                     84
                      A                      A                      A
 Frequencies --   1253.4174              1264.2458              1281.5694
 Red. masses --      1.4187                 2.1179                 2.2149
 Frc consts  --      1.3132                 1.9944                 2.1433
 IR Inten    --     25.9162                91.1002                33.9455

                     85                     86                     87
                      A                      A                      A
 Frequencies --   1291.8234              1298.4500              1304.2850
 Red. masses --      1.1059                 1.8788                 3.3988
 Frc consts  --      1.0873                 1.8663                 3.4066
 IR Inten    --      9.8685                13.5704               456.3851

                     88                     89                     90
                      A                      A                      A
 Frequencies --   1328.3663              1340.3462              1358.7536
 Red. masses --      1.7348                 1.6921                 1.8209
 Frc consts  --      1.8035                 1.7910                 1.9807
 IR Inten    --      9.2463                21.6963                27.5203

                     91                     92                     93
                      A                      A                      A
 Frequencies --   1371.8105              1386.9021              1387.1877
 Red. masses --      3.9155                 1.3517                 1.2741
 Frc consts  --      4.3414                 1.5319                 1.4445
 IR Inten    --      5.7615                23.4824                 6.9251

                     94                     95                     96
                      A                      A                      A
 Frequencies --   1400.8353              1421.4079              1456.7710
 Red. masses --      1.2613                 1.4505                 2.6453
 Frc consts  --      1.4583                 1.7267                 3.3076
 IR Inten    --     24.2008                 2.4590               119.5649

                     97                     98                     99
                      A                      A                      A
 Frequencies --   1462.1950              1471.5617              1473.0940
 Red. masses --      1.0740                 2.1957                 1.0378
 Frc consts  --      1.3529                 2.8014                 1.3269
 IR Inten    --      2.1006                34.0511                 3.1902

                    100                    101                    102
                      A                      A                      A
 Frequencies --   1475.7312              1481.7734              1482.6956
 Red. masses --      1.0803                 1.0786                 1.0610
 Frc consts  --      1.3861                 1.3953                 1.3743
 IR Inten    --      9.6080                 4.0196                 0.8450

                    103                    104                    105
                      A                      A                      A
 Frequencies --   1490.4170              1494.5312              1498.5668
 Red. masses --      1.0717                 1.0980                 1.0837
 Frc consts  --      1.4026                 1.4450                 1.4338
 IR Inten    --      3.6062                 3.8860                16.7208

                    106                    107                    108
                      A                      A                      A
 Frequencies --   1509.0633              1528.2004              1606.2402
 Red. masses --      1.1220                 2.6465                 4.8628
 Frc consts  --      1.5054                 3.6415                 7.3919
 IR Inten    --      0.7413                65.0886                 0.9607

                    109                    110                    111
                      A                      A                      A
 Frequencies --   1639.8777              1760.5373              2930.6026
 Red. masses --      5.6528                11.9247                 1.0775
 Frc consts  --      8.9565                21.7765                 5.4522
 IR Inten    --    107.4242               282.6033                20.1869

                    112                    113                    114
                      A                      A                      A
 Frequencies --   3026.1392              3035.7910              3042.7063
 Red. masses --      1.0738                 1.0375                 1.0376
 Frc consts  --      5.7937                 5.6335                 5.6599
 IR Inten    --     37.8861                 1.8086                30.6034

                    115                    116                    117
                      A                      A                      A
 Frequencies --   3042.7897              3072.4186              3089.8982
 Red. masses --      1.0369                 1.0604                 1.0613
 Frc consts  --      5.6565                 5.8979                 5.9701
 IR Inten    --     11.7105                21.6129                16.7769

                    118                    119                    120
                      A                      A                      A
 Frequencies --   3110.3326              3111.8212              3118.4476
 Red. masses --      1.1009                 1.1024                 1.1015
 Frc consts  --      6.2748                 6.2893                 6.3109
 IR Inten    --      4.9836                14.2964                14.9585

                    121                    122                    123
                      A                      A                      A
 Frequencies --   3134.2136              3143.0409              3148.0446
 Red. masses --      1.1034                 1.0929                 1.0937
 Frc consts  --      6.3861                 6.3613                 6.3861
 IR Inten    --      5.3253                13.0757                 0.4028

                    124                    125                    126
                      A                      A                      A
 Frequencies --   3149.0959              3151.9199              3156.1210
 Red. masses --      1.0997                 1.1039                 1.0984
 Frc consts  --      6.4256                 6.4612                 6.4464
 IR Inten    --      8.0291                 9.5654                 6.8114

                    127                    128                    129
                      A                      A                      A
 Frequencies --   3159.0222              3180.2005              3190.4299
 Red. masses --      1.1012                 1.0861                 1.0898
 Frc consts  --      6.4749                 6.4721                 6.5358
 IR Inten    --      8.5070                 0.2979                 2.9658

                    130                    131                    132
                      A                      A                      A
 Frequencies --   3201.5787              3207.0037              3251.8168
 Red. masses --      1.0942                 1.0979                 1.0935
 Frc consts  --      6.6083                 6.6528                 6.8125
 IR Inten    --      5.3612                 5.9733                 8.7184

 - Thermochemistry -
 -------------------
 Temperature   298.150 Kelvin.  Pressure   1.00000 Atm.
 Atom     1 has atomic number  6 and mass  12.00000

 Molecular mass:   434.99839 amu.
 Principal axes and moments of inertia in atomic units:
                           1         2         3
     Eigenvalues --  8452.36000********************
           X            0.99591  -0.08996  -0.00837
           Y            0.08931   0.99424  -0.05927
           Z            0.01366   0.05828   0.99821
 This molecule is an asymmetric top.
 Rotational symmetry number  1.
 Warning -- assumption of classical behavior for rotation
           may cause significant error
 Rotational temperatures (Kelvin)      0.01025     0.00771     0.00681
 Rotational constants (GHZ):           0.21352     0.16070     0.14197
    1 imaginary frequencies ignored.
 Zero-point vibrational energy     944532.9 (Joules/Mol)
                                  225.74878 (Kcal/Mol)
 Warning -- explicit consideration of  41 degrees of freedom as
           vibrations may cause significant error
 Vibrational temperatures:     28.81    37.97    61.69    69.94    83.93
          (Kelvin)             88.33    95.87   107.89   126.04   138.12
                              152.93   154.23   174.75   198.22   202.12
                              206.94   235.16   266.79   297.15   309.58
                              355.61   368.11   371.86   389.62   406.44
                              434.77   480.79   490.41   509.63   542.47
                              548.90   549.81   560.34   566.46   594.58
                              642.14   674.08   704.56   731.59   778.51
                              813.77   894.69   934.48   955.54   989.65
                              999.27  1105.47  1141.46  1166.30  1181.20
                             1205.14  1229.21  1240.30  1281.22  1321.79
                             1335.89  1353.08  1366.40  1392.79  1414.84
                             1423.50  1430.25  1446.54  1454.64  1467.14
                             1484.85  1506.93  1512.76  1522.54  1563.61
                             1585.34  1618.42  1636.73  1678.89  1682.52
                             1697.38  1698.99  1727.84  1740.22  1747.72
                             1803.39  1818.97  1843.89  1858.65  1868.18
                             1876.58  1911.22  1928.46  1954.94  1973.73
                             1995.44  1995.85  2015.49  2045.09  2095.97
                             2103.77  2117.25  2119.45  2123.25  2131.94
                             2133.27  2144.38  2150.30  2156.10  2171.21
                             2198.74  2311.02  2359.42  2533.02  4216.48
                             4353.94  4367.83  4377.78  4377.90  4420.53
                             4445.67  4475.07  4477.22  4486.75  4509.43
                             4522.13  4529.33  4530.85  4534.91  4540.95
                             4545.13  4575.60  4590.32  4606.36  4614.16
                             4678.64

 Zero-point correction=                           0.359754 (Hartree/Particle)
 Thermal correction to Energy=                    0.386523
 Thermal correction to Enthalpy=                  0.387467
 Thermal correction to Gibbs Free Energy=         0.299003
 Sum of electronic and zero-point Energies=          -3531.169344
 Sum of electronic and thermal Energies=             -3531.142575
 Sum of electronic and thermal Enthalpies=           -3531.141631
 Sum of electronic and thermal Free Energies=        -3531.230095

                     E (Thermal)             CV                S
                      KCal/Mol        Cal/Mol-Kelvin    Cal/Mol-Kelvin
 Total                  242.547             96.855            186.187
 Electronic               0.000              0.000              3.561
 Translational            0.889              2.981             44.100
 Rotational               0.889              2.981             35.444
 Vibrational            240.769             90.894            103.083
 Vibration     1          0.593              1.986              6.632
 Vibration     2          0.593              1.985              6.084
 Vibration     3          0.595              1.980              5.122
 Vibration     4          0.595              1.978              4.873
 Vibration     5          0.596              1.974              4.513
 Vibration     6          0.597              1.973              4.412
 Vibration     7          0.598              1.970              4.250
 Vibration     8          0.599              1.966              4.018
 Vibration     9          0.601              1.958              3.713
 Vibration    10          0.603              1.952              3.534
 Vibration    11          0.605              1.944              3.335
 Vibration    12          0.606              1.943              3.319
 Vibration    13          0.609              1.931              3.077
 Vibration    14          0.614              1.916              2.835
 Vibration    15          0.615              1.913              2.797
 Vibration    16          0.616              1.909              2.752
 Vibration    17          0.623              1.887              2.510
 Vibration    18          0.632              1.860              2.273
 Vibration    19          0.641              1.831              2.074
 Vibration    20          0.645              1.818              1.999
 Vibration    21          0.661              1.767              1.751
 Vibration    22          0.666              1.753              1.690
 Vibration    23          0.667              1.748              1.672
 Vibration    24          0.674              1.727              1.591
 Vibration    25          0.682              1.706              1.519
 Vibration    26          0.694              1.670              1.405
 Vibration    27          0.716              1.607              1.240
 Vibration    28          0.720              1.594              1.208
 Vibration    29          0.730              1.567              1.147
 Vibration    30          0.748              1.519              1.051
 Vibration    31          0.751              1.510              1.033
 Vibration    32          0.752              1.508              1.031
 Vibration    33          0.757              1.493              1.002
 Vibration    34          0.761              1.484              0.986
 Vibration    35          0.777              1.441              0.915
 Vibration    36          0.806              1.369              0.807
 Vibration    37          0.826              1.320              0.742
 Vibration    38          0.846              1.273              0.684
 Vibration    39          0.864              1.231              0.637
 Vibration    40          0.896              1.159              0.563
 Vibration    41          0.921              1.106              0.513

 Optimization completed.
    -- Stationary point found.
 Normal termination of Gaussian 16 at Thu Jun  3 05:46:00 2021.
