 Gaussian 16, Revision A.03,
 Gaussian 16:  ES64L-G16RevA.03 25-Dec-2016

 ----------------------------------------------------------------------
 #p opt=(maxstep=3) freq=noraman ub3lyp empiricaldispersion=gd3bj jul-c
 c-pvdz pop=cm5
 ----------------------------------------------------------------------

 -----
 title
 -----
 Symbolic Z-matrix:
 Charge =  0 Multiplicity = 6

 SCF Done:  E(UB3LYP) =  -3531.52901074     A.U. after   26 cycles
 Optimization completed.
    -- Stationary point found.
 Normal termination of Gaussian 16 at Tue Jun 15 12:55:32 2021.

 ----------------------------------------------------------------------
 #P Geom=AllCheck Guess=TCheck SCRF=Check GenChk UB3LYP/Jul-CC-pVDZ Fre
 q
 ----------------------------------------------------------------------

 Structure from the checkpoint file:  "/scratch/kwaneu.2872752.bmbhpcps002/Gau-25347.chk"
 -----
 title
 -----
 Charge =  0 Multiplicity = 6

                         Standard orientation:
 ---------------------------------------------------------------------
 Center     Atomic      Atomic             Coordinates (Angstroms)
 Number     Number       Type             X           Y           Z
 ---------------------------------------------------------------------
      1          6           0        2.694160   -1.340242   -1.210272
      2          6           0        1.836693   -0.391956   -0.640315
      3          6           0        1.957989    0.946742   -1.037802
      4          6           0        2.893216    1.321005   -2.002256
      5          6           0        3.734652    0.365869   -2.579091
      6          6           0        3.634150   -0.966604   -2.175077
      7          6           0        0.810609   -0.721172    0.449933
      8          6           0        1.495853   -0.519642    1.879830
      9          6           0        1.512372   -1.879353    2.590047
     10          6           0        1.283928   -2.943395    1.507586
     11          6           0        0.406973   -2.252588    0.406425
     12          6           0       -1.003739   -2.543059    0.719420
     13          6           0       -1.734182   -1.945529    1.809293
     14          8           0       -0.316187    0.086094    0.338759
     15         26           0       -1.451011    0.552482   -1.049285
     16         17           0       -3.499858    0.100594   -0.199000
     17          6           0       -1.722717   -3.423700   -0.207065
     18         17           0       -1.228657    2.678125   -1.600563
     19         17           0       -1.060314   -0.932115   -2.679653
     20          1           0        1.308270    1.697246   -0.596264
     21          1           0        2.955139    2.365353   -2.309565
     22          1           0        4.460155    0.656640   -3.339627
     23          1           0        4.281888   -1.724575   -2.617254
     24          1           0        2.644533   -2.390502   -0.926359
     25          1           0        2.509696   -0.146792    1.708491
     26          6           0        0.729714    0.553095    2.630644
     27          1           0        0.720040   -1.905711    3.346555
     28          1           0        2.458314   -2.056316    3.117285
     29          1           0        0.836073   -3.863831    1.906746
     30          1           0        2.223546   -3.233454    1.022077
     31          1           0        0.624800   -2.658968   -0.583807
     32          1           0       -1.084679   -4.229956   -0.592803
     33          1           0       -1.908719   -2.763763   -1.087424
     34          1           0       -2.678226   -3.793981    0.174910
     35          1           0       -2.496935   -2.615499    2.225334
     36          1           0       -2.334503   -1.163732    1.245877
     37          1           0       -1.160827   -1.395015    2.556660
     38          8           0        1.079389    1.770132    2.205929
     39          8           0       -0.115917    0.335571    3.477761
     40          6           0        0.230457    2.874689    2.626629
     41          6           0        0.578095    4.065297    1.759406
     42          1           0        0.413219    3.060041    3.694017
     43          1           0       -0.813795    2.562656    2.502912
     44          1           0       -0.021961    4.930641    2.074584
     45          1           0        0.351670    3.855501    0.705806
     46          1           0        1.641038    4.326095    1.856327
 ---------------------------------------------------------------------

 SCF Done:  E(UB3LYP) =  -3531.52901074     A.U. after    2 cycles

 The electronic state is 6-A.
 Alpha  occ. eigenvalues -- -256.18070-101.50577-101.50475-101.49761 -30.17487
 Alpha  occ. eigenvalues --  -26.02841 -26.02726 -26.02587 -19.19827 -19.14885
 Alpha  occ. eigenvalues --  -19.14711 -10.33513 -10.32581 -10.28754 -10.24539
 Alpha  occ. eigenvalues --  -10.24484 -10.24461 -10.24322 -10.23062 -10.22047
 Alpha  occ. eigenvalues --  -10.21674 -10.20911 -10.20386 -10.20145 -10.19832
 Alpha  occ. eigenvalues --  -10.19677 -10.19231 -10.18211  -9.42258  -9.42152
 Alpha  occ. eigenvalues --   -9.41465  -7.18113  -7.18017  -7.17829  -7.17774
 Alpha  occ. eigenvalues --   -7.17712  -7.17684  -7.17329  -7.17026  -7.16998
 Alpha  occ. eigenvalues --   -3.65226  -2.42830  -2.42579  -2.42354  -1.11878
 Alpha  occ. eigenvalues --   -1.03269  -1.02611  -0.91320  -0.87149  -0.85505
 Alpha  occ. eigenvalues --   -0.79422  -0.78308  -0.78019  -0.77521  -0.77123
 Alpha  occ. eigenvalues --   -0.76805  -0.76281  -0.75574  -0.72846  -0.66769
 Alpha  occ. eigenvalues --   -0.65291  -0.62089  -0.61665  -0.59794  -0.57630
 Alpha  occ. eigenvalues --   -0.56822  -0.55495  -0.54084  -0.52192  -0.51553
 Alpha  occ. eigenvalues --   -0.50723  -0.50625  -0.48665  -0.48514  -0.47995
 Alpha  occ. eigenvalues --   -0.46669  -0.46066  -0.46026  -0.45616  -0.45503
 Alpha  occ. eigenvalues --   -0.45374  -0.44911  -0.44269  -0.43994  -0.43568
 Alpha  occ. eigenvalues --   -0.43076  -0.42665  -0.42214  -0.41465  -0.40419
 Alpha  occ. eigenvalues --   -0.39851  -0.39806  -0.38894  -0.37969  -0.37714
 Alpha  occ. eigenvalues --   -0.36986  -0.36281  -0.35981  -0.35699  -0.35335
 Alpha  occ. eigenvalues --   -0.34851  -0.32847  -0.32327  -0.31383  -0.30627
 Alpha  occ. eigenvalues --   -0.29422  -0.29289  -0.29034  -0.28838  -0.28765
 Alpha  occ. eigenvalues --   -0.27833  -0.27418  -0.27036  -0.26326  -0.25543
 Alpha virt. eigenvalues --   -0.15055  -0.03279  -0.03048  -0.02460  -0.01274
 Alpha virt. eigenvalues --   -0.00731  -0.00608  -0.00229   0.00702   0.00938
 Alpha virt. eigenvalues --    0.01423   0.01818   0.02037   0.02658   0.03182

  Beta  occ. eigenvalues -- -256.17882-101.50424-101.50302-101.49578 -30.08607
  Beta  occ. eigenvalues --  -25.95392 -25.95318 -25.95234 -19.19824 -19.14884
  Beta  occ. eigenvalues --  -19.13951 -10.33500 -10.32581 -10.28738 -10.24522
  Beta  occ. eigenvalues --  -10.24484 -10.24461 -10.24323 -10.23062 -10.22022
  Beta  occ. eigenvalues --  -10.21672 -10.20895 -10.20385 -10.20143 -10.19833
  Beta  occ. eigenvalues --  -10.19676 -10.19234 -10.18210  -9.42108  -9.41982
  Beta  occ. eigenvalues --   -9.41286  -7.17831  -7.17721  -7.17655  -7.17570
  Beta  occ. eigenvalues --   -7.17491  -7.17453  -7.17042  -7.16761  -7.16755
  Beta  occ. eigenvalues --   -3.44519  -2.20885  -2.20783  -2.20644  -1.11869
  Beta  occ. eigenvalues --   -1.03258  -1.01185  -0.91168  -0.87062  -0.85457
  Beta  occ. eigenvalues --   -0.79395  -0.77764  -0.77259  -0.76989  -0.76511
  Beta  occ. eigenvalues --   -0.76107  -0.75889  -0.75543  -0.72727  -0.66673
  Beta  occ. eigenvalues --   -0.65251  -0.62046  -0.61632  -0.59697  -0.57415
  Beta  occ. eigenvalues --   -0.56628  -0.55332  -0.53611  -0.51801  -0.51382
  Beta  occ. eigenvalues --   -0.50611  -0.50468  -0.48507  -0.47942  -0.47687
  Beta  occ. eigenvalues --   -0.46447  -0.45541  -0.44736  -0.44465  -0.44229
  Beta  occ. eigenvalues --   -0.43543  -0.42717  -0.42582  -0.41742  -0.40503
  Beta  occ. eigenvalues --   -0.39958  -0.39822  -0.38875  -0.37959  -0.37715
  Beta  occ. eigenvalues --   -0.36785  -0.36128  -0.35946  -0.35922  -0.35591
  Beta  occ. eigenvalues --   -0.35216  -0.33821  -0.33453  -0.31524  -0.31320
  Beta  occ. eigenvalues --   -0.31104  -0.30925  -0.30570  -0.30212  -0.29320
  Beta  occ. eigenvalues --   -0.28326  -0.27703  -0.27498  -0.26314  -0.25498
  Beta virt. eigenvalues --   -0.15118  -0.12062  -0.11897  -0.11128  -0.10595
  Beta virt. eigenvalues --   -0.09644  -0.03253  -0.03034  -0.02376  -0.01264
  Beta virt. eigenvalues --   -0.00713  -0.00577  -0.00177   0.00726   0.00947

 Mulliken charges and spin densities:
               1          2
     1  C   -0.327577  -0.000123
     2  C    3.286957   0.007703
     3  C   -0.524134   0.000353
     4  C    0.085644   0.005574
     5  C    0.237141   0.000790
     6  C   -0.153815   0.000144
     7  C   -2.392628  -0.017818
     8  C    0.675441   0.014898
     9  C    0.523698  -0.000719
    10  C    0.619158  -0.000519
    11  C    1.247440   0.014868
    12  C   -0.534197   0.016079
    13  C    0.024765  -0.008409
    14  O   -0.550553   0.251096
    15  Fe   0.628525   4.052161
    16  Cl  -0.536331   0.199324
    17  C    0.358544  -0.005063
    18  Cl  -0.446366   0.253661
    19  Cl  -0.544519   0.217279
    20  H   -0.289517  -0.000730
    21  H   -0.182035  -0.000082
    22  H   -0.183397   0.000009
    23  H   -0.182745   0.000077
    24  H   -0.231023   0.000012
    25  H   -0.228181   0.000726
    26  C    0.688752  -0.007550
    27  H   -0.054661  -0.000101
    28  H   -0.147347   0.000492
    29  H   -0.144951   0.000550
    30  H   -0.116582  -0.000079
    31  H   -0.235084  -0.000411
    32  H    0.024401   0.000310
    33  H    0.164474   0.001353
    34  H   -0.019205   0.000022
    35  H   -0.025884  -0.000250
    36  H    0.242179   0.001604
    37  H    0.096167   0.000347
    38  O   -0.707270  -0.000216
    39  O   -0.576922   0.000852
    40  C    0.399175   0.001938
    41  C    0.100336   0.000104
    42  H   -0.066147   0.000098
    43  H   -0.031264  -0.000093
    44  H   -0.026480   0.000014
    45  H    0.049160  -0.000278
    46  H    0.006857   0.000005
 Sum of Mulliken charges =   0.00000   5.00000

 Dipole moment (field-independent basis, Debye):
    X=              4.4196    Y=             -7.4530    Z=              4.3852  Tot=              9.7113
 Quadrupole moment (field-independent basis, Debye-Ang):
   XX=           -180.0497   YY=           -150.1406   ZZ=           -187.3134
   XY=              8.3423   XZ=             -7.3779   YZ=             -1.1130

  Exact polarizability: 296.471  -2.464 307.944 -23.500 -13.284 271.794
 Approx polarizability: 454.432 -12.846 490.115 -45.898 -19.673 427.537

                      1                      2                      3
                      A                      A                      A
 Frequencies --     24.4994                34.8770                38.0726
 Red. masses --      7.4267                 7.0730                 4.6390
 Frc consts  --      0.0026                 0.0051                 0.0040
 IR Inten    --      0.2450                 0.8925                 0.2866

                      4                      5                      6
                      A                      A                      A
 Frequencies --     48.6029                55.3958                60.7665
 Red. masses --      3.4485                 3.7387                 4.6664
 Frc consts  --      0.0048                 0.0068                 0.0102
 IR Inten    --      0.1374                 0.5582                 2.7180

                      7                      8                      9
                      A                      A                      A
 Frequencies --     72.0257                75.3472                85.6949
 Red. masses --      4.7360                 2.8358                11.3751
 Frc consts  --      0.0145                 0.0095                 0.0492
 IR Inten    --      0.5060                 1.0704                 0.6024

                     10                     11                     12
                      A                      A                      A
 Frequencies --    101.8377               107.9941               111.7729
 Red. masses --      7.7959                12.7717                 7.8949
 Frc consts  --      0.0476                 0.0878                 0.0581
 IR Inten    --      0.2523                 0.4952                 2.2626

                     13                     14                     15
                      A                      A                      A
 Frequencies --    113.5086               127.0721               131.8780
 Red. masses --      7.9723                 6.8758                10.5703
 Frc consts  --      0.0605                 0.0654                 0.1083
 IR Inten    --      2.9409                15.2491                 1.7899

                     16                     17                     18
                      A                      A                      A
 Frequencies --    151.6734               159.3499               192.0242
 Red. masses --      4.4440                 3.8568                 1.5601
 Frc consts  --      0.0602                 0.0577                 0.0339
 IR Inten    --      2.7481                 3.6344                12.9293

                     19                     20                     21
                      A                      A                      A
 Frequencies --    196.6469               201.7802               221.4768
 Red. masses --      2.7698                 2.6190                 1.7515
 Frc consts  --      0.0631                 0.0628                 0.0506
 IR Inten    --      1.5825                 1.6293                20.8665

                     22                     23                     24
                      A                      A                      A
 Frequencies --    230.8864               248.4424               261.1761
 Red. masses --      4.3571                 3.0787                 1.8561
 Frc consts  --      0.1369                 0.1120                 0.0746
 IR Inten    --      0.1813                 2.0866                 5.0922

                     25                     26                     27
                      A                      A                      A
 Frequencies --    276.1936               290.9266               303.2258
 Red. masses --      2.4325                 1.5940                 4.1720
 Frc consts  --      0.1093                 0.0795                 0.2260
 IR Inten    --      1.3100                 0.7123                 4.0944

                     28                     29                     30
                      A                      A                      A
 Frequencies --    323.1261               328.1052               342.6838
 Red. masses --      4.9158                 8.5520                 2.8636
 Frc consts  --      0.3024                 0.5424                 0.1981
 IR Inten    --      8.0046                22.1635                14.7872

                     31                     32                     33
                      A                      A                      A
 Frequencies --    357.0456               371.5656               395.2780
 Red. masses --     23.6463                 3.9000                21.7891
 Frc consts  --      1.7761                 0.3172                 2.0058
 IR Inten    --     53.4814                11.9497                85.1287

                     34                     35                     36
                      A                      A                      A
 Frequencies --    410.8126               422.1262               433.4184
 Red. masses --      2.9645                 5.0160                 5.3214
 Frc consts  --      0.2948                 0.5266                 0.5890
 IR Inten    --      0.5687                13.8803                 8.9372

                     37                     38                     39
                      A                      A                      A
 Frequencies --    447.4798               489.9946               525.3518
 Red. masses --      3.2187                 2.4827                 2.5537
 Frc consts  --      0.3797                 0.3512                 0.4153
 IR Inten    --      5.9089                 5.0035                13.8992

                     40                     41                     42
                      A                      A                      A
 Frequencies --    553.5505               589.1151               629.5888
 Red. masses --      3.3334                 2.7019                 5.8662
 Frc consts  --      0.6018                 0.5525                 1.3700
 IR Inten    --     21.7847                 6.5146                 4.3903

                     43                     44                     45
                      A                      A                      A
 Frequencies --    641.6422               695.6375               698.6622
 Red. masses --      4.6688                 5.6055                 2.5088
 Frc consts  --      1.1325                 1.5982                 0.7215
 IR Inten    --     29.8429                14.0685                11.3483

                     46                     47                     48
                      A                      A                      A
 Frequencies --    703.6916               717.6080               759.4250
 Red. masses --      1.5068                 1.8379                 3.1028
 Frc consts  --      0.4396                 0.5576                 1.0543
 IR Inten    --     51.7639                19.9716                24.5796

                     49                     50                     51
                      A                      A                      A
 Frequencies --    779.2578               799.8695               809.9044
 Red. masses --      3.2862                 2.4858                 1.1236
 Frc consts  --      1.1757                 0.9371                 0.4343
 IR Inten    --     13.2442                 4.2618                 0.4313

                     52                     53                     54
                      A                      A                      A
 Frequencies --    836.8151               847.3539               859.6164
 Red. masses --      1.2518                 3.2804                 2.7476
 Frc consts  --      0.5165                 1.3877                 1.1962
 IR Inten    --      1.2826                 3.9533                23.8952

                     55                     56                     57
                      A                      A                      A
 Frequencies --    877.8496               893.4299               910.3087
 Red. masses --      2.7873                 3.1007                 1.8130
 Frc consts  --      1.2656                 1.4582                 0.8852
 IR Inten    --      7.8444                 2.8225                17.3648

                     58                     59                     60
                      A                      A                      A
 Frequencies --    933.0020               947.6875               969.4851
 Red. masses --      2.5811                 2.5383                 2.2824
 Frc consts  --      1.3238                 1.3431                 1.2639
 IR Inten    --      7.1016                 5.9111                60.7470

                     61                     62                     63
                      A                      A                      A
 Frequencies --    976.8502               996.3839               999.0259
 Red. masses --      1.3769                 2.5415                 1.3846
 Frc consts  --      0.7741                 1.4866                 0.8142
 IR Inten    --      0.6395                12.4998                 1.4605

                     64                     65                     66
                      A                      A                      A
 Frequencies --   1009.3209              1015.7159              1023.2651
 Red. masses --      5.0454                 2.4736                 1.7790
 Frc consts  --      3.0284                 1.5036                 1.0975
 IR Inten    --      0.9942                17.3521                 6.8568

                     67                     68                     69
                      A                      A                      A
 Frequencies --   1031.4653              1042.3381              1055.4696
 Red. masses --      1.9495                 2.6156                 2.2314
 Frc consts  --      1.2220                 1.6743                 1.4646
 IR Inten    --      2.2395                32.7832                 6.0464

                     70                     71                     72
                      A                      A                      A
 Frequencies --   1069.8803              1098.8288              1109.7969
 Red. masses --      2.1656                 2.1611                 2.2835
 Frc consts  --      1.4605                 1.5374                 1.6571
 IR Inten    --     21.1577                90.2559                22.5497

                     73                     74                     75
                      A                      A                      A
 Frequencies --   1126.2422              1135.1814              1160.6874
 Red. masses --      2.3679                 2.2679                 1.6636
 Frc consts  --      1.7696                 1.7219                 1.3205
 IR Inten    --     64.8771                16.7736                39.3281

                     76                     77                     78
                      A                      A                      A
 Frequencies --   1171.3590              1174.3141              1188.3147
 Red. masses --      1.5529                 1.0879                 1.5256
 Frc consts  --      1.2553                 0.8839                 1.2692
 IR Inten    --      8.7926                 0.3680                10.7331

                     79                     80                     81
                      A                      A                      A
 Frequencies --   1206.0182              1211.3766              1225.7316
 Red. masses --      1.2071                 1.6182                 1.9774
 Frc consts  --      1.0345                 1.3991                 1.7503
 IR Inten    --     16.5925                25.0476                98.1703

                     82                     83                     84
                      A                      A                      A
 Frequencies --   1241.8353              1263.6017              1280.3365
 Red. masses --      1.5867                 1.6041                 1.3709
 Frc consts  --      1.4417                 1.5091                 1.3240
 IR Inten    --    109.0057                12.4720                31.3111

                     85                     86                     87
                      A                      A                      A
 Frequencies --   1287.1237              1302.5771              1314.7897
 Red. masses --      1.1134                 1.2241                 1.6853
 Frc consts  --      1.0868                 1.2236                 1.7165
 IR Inten    --      4.4936                15.9079               103.1016

                     88                     89                     90
                      A                      A                      A
 Frequencies --   1320.8809              1328.4122              1333.0917
 Red. masses --      1.5528                 1.4327                 1.2429
 Frc consts  --      1.5962                 1.4896                 1.3014
 IR Inten    --     50.6703                35.0434                26.7628

                     91                     92                     93
                      A                      A                      A
 Frequencies --   1345.4968              1359.7576              1368.6852
 Red. masses --      1.3740                 2.8347                 1.3700
 Frc consts  --      1.4656                 3.0880                 1.5121
 IR Inten    --     18.7267                 0.8247                14.0960

                     94                     95                     96
                      A                      A                      A
 Frequencies --   1389.2570              1395.1733              1417.0915
 Red. masses --      1.2794                 1.5860                 1.2933
 Frc consts  --      1.4548                 1.8190                 1.5302
 IR Inten    --     11.2421                67.3627                10.1374

                     97                     98                     99
                      A                      A                      A
 Frequencies --   1420.2626              1439.2487              1470.9816
 Red. masses --      1.5266                 1.4201                 2.2188
 Frc consts  --      1.8143                 1.7331                 2.8287
 IR Inten    --      8.1911                33.1430                 6.2921

                    100                    101                    102
                      A                      A                      A
 Frequencies --   1477.1412              1482.6187              1487.5869
 Red. masses --      1.0406                 1.1146                 1.0531
 Frc consts  --      1.3378                 1.4435                 1.3730
 IR Inten    --      3.6606                 6.7507                 1.1299

                    103                    104                    105
                      A                      A                      A
 Frequencies --   1496.0909              1505.6135              1506.3871
 Red. masses --      1.2480                 1.0899                 1.1500
 Frc consts  --      1.6459                 1.4557                 1.5375
 IR Inten    --     21.2518                 5.2756                20.9527

                    106                    107                    108
                      A                      A                      A
 Frequencies --   1520.8969              1523.8787              1628.5786
 Red. masses --      1.7137                 1.6861                 5.8405
 Frc consts  --      2.3355                 2.3070                 9.1268
 IR Inten    --      3.0874                34.0737                 0.3314

                    109                    110                    111
                      A                      A                      A
 Frequencies --   1648.1989              1759.8872              2633.9228
 Red. masses --      5.8732                11.2881                 1.0690
 Frc consts  --      9.4003                20.5988                 4.3695
 IR Inten    --      1.3134               223.4481               609.0750

                    112                    113                    114
                      A                      A                      A
 Frequencies --   2890.4629              3038.8536              3054.4698
 Red. masses --      1.0628                 1.0351                 1.0623
 Frc consts  --      5.2316                 5.6320                 5.8392
 IR Inten    --    119.0876                17.9007                17.7544

                    115                    116                    117
                      A                      A                      A
 Frequencies --   3060.5749              3071.8061              3077.4906
 Red. masses --      1.0600                 1.0631                 1.0615
 Frc consts  --      5.8500                 5.9102                 5.9233
 IR Inten    --     22.3922                27.2438                 9.9697

                    118                    119                    120
                      A                      A                      A
 Frequencies --   3080.7821              3098.6784              3108.4744
 Red. masses --      1.0654                 1.1022                 1.1048
 Frc consts  --      5.9578                 6.2353                 6.2899
 IR Inten    --      5.1246                 6.1136                 6.0049

                    121                    122                    123
                      A                      A                      A
 Frequencies --   3110.7247              3118.2128              3124.9491
 Red. masses --      1.0903                 1.1012                 1.0956
 Frc consts  --      6.2160                 6.3086                 6.3036
 IR Inten    --      0.1108                16.3442                11.8744

                    124                    125                    126
                      A                      A                      A
 Frequencies --   3128.3015              3133.6700              3168.2863
 Red. masses --      1.0889                 1.1061                 1.0851
 Frc consts  --      6.2786                 6.3999                 6.4176
 IR Inten    --      5.0758                23.0636                 2.2121

                    127                    128                    129
                      A                      A                      A
 Frequencies --   3168.9283              3179.5177              3186.8193
 Red. masses --      1.1045                 1.0885                 1.1073
 Frc consts  --      6.5347                 6.4835                 6.6258
 IR Inten    --      9.1400                 6.4269                22.1796

                    130                    131                    132
                      A                      A                      A
 Frequencies --   3188.8270              3197.4121              3231.3984
 Red. masses --      1.0926                 1.0980                 1.0918
 Frc consts  --      6.5460                 6.6139                 6.7172
 IR Inten    --     24.1686                14.4539                 1.4188

 - Thermochemistry -
 -------------------
 Temperature   298.150 Kelvin.  Pressure   1.00000 Atm.
 Atom     1 has atomic number  6 and mass  12.00000

 Molecular mass:   434.99839 amu.
 Principal axes and moments of inertia in atomic units:
                           1         2         3
     Eigenvalues --  9882.82951********************
           X            0.96351  -0.26683   0.02108
           Y           -0.14569  -0.45673   0.87759
           Z            0.22454   0.84864   0.47894
 This molecule is an asymmetric top.
 Rotational symmetry number  1.
 Warning -- assumption of classical behavior for rotation
           may cause significant error
 Rotational temperatures (Kelvin)      0.00876     0.00829     0.00824
 Rotational constants (GHZ):           0.18261     0.17265     0.17173
 Zero-point vibrational energy     942772.5 (Joules/Mol)
                                  225.32803 (Kcal/Mol)
 Warning -- explicit consideration of  41 degrees of freedom as
           vibrations may cause significant error
 Vibrational temperatures:     35.25    50.18    54.78    69.93    79.70
          (Kelvin)             87.43   103.63   108.41   123.30   146.52
                              155.38   160.82   163.31   182.83   189.74
                              218.22   229.27   276.28   282.93   290.32
                              318.66   332.19   357.45   375.77   397.38
                              418.58   436.27   464.91   472.07   493.05
                              513.71   534.60   568.72   591.07   607.35
                              623.59   643.82   704.99   755.86   796.44
                              847.61   905.84   923.18  1000.87  1005.22
                             1012.46  1032.48  1092.64  1121.18  1150.83
                             1165.27  1203.99  1219.15  1236.80  1263.03
                             1285.45  1309.73  1342.38  1363.51  1394.87
                             1405.47  1433.57  1437.38  1452.19  1461.39
                             1472.25  1484.05  1499.69  1518.59  1539.32
                             1580.97  1596.75  1620.41  1633.27  1669.97
                             1685.32  1689.58  1709.72  1735.19  1742.90
                             1763.55  1786.72  1818.04  1842.12  1851.88
                             1874.12  1891.69  1900.45  1911.29  1918.02
                             1935.87  1956.39  1969.23  1998.83  2007.34
                             2038.88  2043.44  2070.76  2116.41  2125.28
                             2133.16  2140.31  2152.54  2166.24  2167.36
                             2188.23  2192.52  2343.16  2371.39  2532.09
                             3789.63  4158.73  4372.23  4394.70  4403.48
                             4419.64  4427.82  4432.56  4458.31  4472.40
                             4475.64  4486.41  4496.10  4500.93  4508.65
                             4558.46  4559.38  4574.62  4585.12  4588.01
                             4600.36  4649.26

 Zero-point correction=                           0.359083 (Hartree/Particle)
 Thermal correction to Energy=                    0.386240
 Thermal correction to Enthalpy=                  0.387184
 Thermal correction to Gibbs Free Energy=         0.298292
 Sum of electronic and zero-point Energies=          -3531.169928
 Sum of electronic and thermal Energies=             -3531.142771
 Sum of electronic and thermal Enthalpies=           -3531.141827
 Sum of electronic and thermal Free Energies=        -3531.230719

                     E (Thermal)             CV                S
                      KCal/Mol        Cal/Mol-Kelvin    Cal/Mol-Kelvin
 Total                  242.369             98.126            187.089
 Electronic               0.000              0.000              3.561
 Translational            0.889              2.981             44.100
 Rotational               0.889              2.981             35.339
 Vibrational            240.592             92.165            104.089
 Vibration     1          0.593              1.985              6.231
 Vibration     2          0.594              1.983              5.531
 Vibration     3          0.594              1.982              5.357
 Vibration     4          0.595              1.978              4.873
 Vibration     5          0.596              1.975              4.615
 Vibration     6          0.597              1.973              4.432
 Vibration     7          0.598              1.967              4.097
 Vibration     8          0.599              1.965              4.009
 Vibration     9          0.601              1.959              3.756
 Vibration    10          0.604              1.948              3.419
 Vibration    11          0.606              1.943              3.305
 Vibration    12          0.607              1.940              3.238
 Vibration    13          0.607              1.938              3.208
 Vibration    14          0.611              1.926              2.990
 Vibration    15          0.612              1.921              2.918
 Vibration    16          0.619              1.901              2.651
 Vibration    17          0.621              1.892              2.557
 Vibration    18          0.634              1.851              2.208
 Vibration    19          0.636              1.845              2.164
 Vibration    20          0.639              1.837              2.117
 Vibration    21          0.648              1.808              1.947
 Vibration    22          0.653              1.794              1.872
 Vibration    23          0.662              1.765              1.742
 Vibration    24          0.669              1.744              1.654
 Vibration    25          0.678              1.717              1.557
 Vibration    26          0.687              1.691              1.469
 Vibration    27          0.695              1.668              1.399
 Vibration    28          0.708              1.629              1.294
 Vibration    29          0.711              1.619              1.269
 Vibration    30          0.722              1.590              1.200
 Vibration    31          0.732              1.561              1.135
 Vibration    32          0.743              1.531              1.073
 Vibration    33          0.762              1.480              0.980
 Vibration    34          0.775              1.447              0.924
 Vibration    35          0.784              1.422              0.885
 Vibration    36          0.794              1.397              0.848
 Vibration    37          0.807              1.366              0.803
 Vibration    38          0.846              1.272              0.684
 Vibration    39          0.880              1.194              0.598
 Vibration    40          0.909              1.132              0.537
 Vibration    41          0.946              1.055              0.469

 Optimization completed.
    -- Stationary point found.
 Normal termination of Gaussian 16 at Tue Jun 15 17:42:39 2021.
