 Gaussian 16, Revision A.03,
 Gaussian 16:  ES64L-G16RevA.03 25-Dec-2016

 ----------------------------------------------------------------------
 #p opt=(maxstep=3) freq=noraman ub3lyp empiricaldispersion=gd3bj jul-c
 c-pvdz pop=cm5
 ----------------------------------------------------------------------

 -----
 title
 -----
 Symbolic Z-matrix:
 Charge =  0 Multiplicity = 6

 SCF Done:  E(UB3LYP) =  -3531.52375511     A.U. after   25 cycles
 SCF Done:  E(UB3LYP) =  -3531.52375476     A.U. after   10 cycles
 SCF Done:  E(UB3LYP) =  -3531.52375512     A.U. after    9 cycles
 Optimization completed.
    -- Stationary point found.
 Normal termination of Gaussian 16 at Tue Jun 15 13:10:49 2021.

 ----------------------------------------------------------------------
 #P Geom=AllCheck Guess=TCheck SCRF=Check GenChk UB3LYP/Jul-CC-pVDZ Fre
 q
 ----------------------------------------------------------------------

 Structure from the checkpoint file:  "/scratch/kwaneu.2872753.bmbhpcps002/Gau-8179.chk"
 -----
 title
 -----
 Charge =  0 Multiplicity = 6

                         Standard orientation:
 ---------------------------------------------------------------------
 Center     Atomic      Atomic             Coordinates (Angstroms)
 Number     Number       Type             X           Y           Z
 ---------------------------------------------------------------------
      1          6           0        1.707543    0.475929    2.021366
      2          6           0        1.102746   -0.037512    0.867221
      3          6           0        1.294605   -1.390610    0.560026
      4          6           0        2.042284   -2.215465    1.400196
      5          6           0        2.624641   -1.698813    2.560179
      6          6           0        2.458086   -0.345988    2.864303
      7          6           0        0.300360    0.832585   -0.112158
      8          6           0        1.255280    1.584115   -1.158873
      9          6           0        1.060227    3.097573   -0.974268
     10          6           0        0.467983    3.286723    0.424805
     11          6           0       -0.415931    2.010031    0.683592
     12          6           0       -1.763947    2.379583    0.239248
     13          6           0       -2.166171    2.465444   -1.145022
     14          8           0       -0.624146    0.069988   -0.816945
     15         26           0       -1.935585   -1.139984   -0.284438
     16         17           0       -3.825408   -0.388906   -1.295556
     17          6           0       -2.782202    2.600054    1.273402
     18         17           0       -1.497833   -3.219028   -0.863056
     19         17           0       -2.209816   -0.819463    1.917669
     20          1           0        0.858432   -1.804356   -0.344482
     21          1           0        2.160574   -3.269315    1.146443
     22          1           0        3.203836   -2.343956    3.221833
     23          1           0        2.913885    0.075784    3.760574
     24          1           0        1.621226    1.529162    2.280590
     25          1           0        0.935534    1.232431   -2.144587
     26          6           0        2.705228    1.189294   -0.962742
     27          1           0        0.388942    3.495614   -1.744014
     28          1           0        2.009671    3.637684   -1.059275
     29          1           0       -0.080337    4.232329    0.537586
     30          1           0        1.256769    3.278707    1.185895
     31          1           0       -0.454121    1.768716    1.748151
     32          1           0       -2.361337    3.044577    2.184423
     33          1           0       -3.070079    1.562796    1.563608
     34          1           0       -3.669572    3.134388    0.921386
     35          1           0       -2.893717    3.266106   -1.327525
     36          1           0       -2.763986    1.507336   -1.271153
     37          1           0       -1.367279    2.417716   -1.882366
     38          8           0        2.975505    0.026266   -1.571836
     39          8           0        3.511109    1.825994   -0.313733
     40          6           0        4.253916   -0.584008   -1.249068
     41          6           0        4.278940   -1.946523   -1.907077
     42          1           0        4.327412   -0.649239   -0.155870
     43          1           0        5.054967    0.073892   -1.611502
     44          1           0        5.234677   -2.442111   -1.685026
     45          1           0        4.176958   -1.859990   -2.997359
     46          1           0        3.463438   -2.575404   -1.526601
 ---------------------------------------------------------------------

 SCF Done:  E(UB3LYP) =  -3531.52375512     A.U. after    2 cycles

 The electronic state is 6-A.
 Alpha  occ. eigenvalues -- -256.18137-101.50736-101.50499-101.49666 -30.17546
 Alpha  occ. eigenvalues --  -26.02913 -26.02792 -26.02630 -19.19999 -19.14767
 Alpha  occ. eigenvalues --  -19.14678 -10.33645 -10.32413 -10.28855 -10.24836
 Alpha  occ. eigenvalues --  -10.24648 -10.24626 -10.24369 -10.23970 -10.22123
 Alpha  occ. eigenvalues --  -10.21809 -10.20746 -10.20222 -10.19965 -10.19866
 Alpha  occ. eigenvalues --  -10.19613 -10.19241 -10.18977  -9.42426  -9.42180
 Alpha  occ. eigenvalues --   -9.41379  -7.18276  -7.18049  -7.18005  -7.17933
 Alpha  occ. eigenvalues --   -7.17737  -7.17711  -7.17244  -7.16943  -7.16911
 Alpha  occ. eigenvalues --   -3.65260  -2.42879  -2.42622  -2.42356  -1.11916
 Alpha  occ. eigenvalues --   -1.03253  -1.02377  -0.91611  -0.87111  -0.85571
 Alpha  occ. eigenvalues --   -0.79641  -0.78497  -0.78214  -0.77575  -0.77076
 Alpha  occ. eigenvalues --   -0.76982  -0.76535  -0.75548  -0.72849  -0.66770
 Alpha  occ. eigenvalues --   -0.65538  -0.62083  -0.61799  -0.60081  -0.58115
 Alpha  occ. eigenvalues --   -0.56797  -0.55700  -0.53851  -0.52356  -0.51628
 Alpha  occ. eigenvalues --   -0.50802  -0.50608  -0.48882  -0.48662  -0.47919
 Alpha  occ. eigenvalues --   -0.46701  -0.46313  -0.46047  -0.45800  -0.45664
 Alpha  occ. eigenvalues --   -0.45427  -0.44984  -0.44455  -0.44095  -0.43691
 Alpha  occ. eigenvalues --   -0.43082  -0.42903  -0.42153  -0.41746  -0.40578
 Alpha  occ. eigenvalues --   -0.40414  -0.40199  -0.39330  -0.38009  -0.37773
 Alpha  occ. eigenvalues --   -0.37113  -0.36667  -0.35921  -0.35852  -0.35495
 Alpha  occ. eigenvalues --   -0.34784  -0.32775  -0.32339  -0.31656  -0.30595
 Alpha  occ. eigenvalues --   -0.29663  -0.29363  -0.29091  -0.28783  -0.28604
 Alpha  occ. eigenvalues --   -0.27814  -0.27403  -0.26808  -0.26126  -0.25664
 Alpha virt. eigenvalues --   -0.15174  -0.03204  -0.02862  -0.02325  -0.01423
 Alpha virt. eigenvalues --   -0.01097  -0.00706  -0.00322   0.00519   0.00869
 Alpha virt. eigenvalues --    0.01400   0.01483   0.01917   0.02810   0.02846

  Beta  occ. eigenvalues -- -256.17949-101.50588-101.50326-101.49476 -30.08673
  Beta  occ. eigenvalues --  -25.95463 -25.95390 -25.95289 -19.19999 -19.14763
  Beta  occ. eigenvalues --  -19.13927 -10.33632 -10.32411 -10.28843 -10.24836
  Beta  occ. eigenvalues --  -10.24648 -10.24611 -10.24371 -10.23971 -10.22099
  Beta  occ. eigenvalues --  -10.21808 -10.20729 -10.20222 -10.19962 -10.19867
  Beta  occ. eigenvalues --  -10.19612 -10.19244 -10.18977  -9.42281  -9.42010
  Beta  occ. eigenvalues --   -9.41193  -7.17999  -7.17840  -7.17751  -7.17737
  Beta  occ. eigenvalues --   -7.17517  -7.17482  -7.16950  -7.16663  -7.16661
  Beta  occ. eigenvalues --   -3.44565  -2.20938  -2.20842  -2.20661  -1.11912
  Beta  occ. eigenvalues --   -1.03246  -1.00960  -0.91464  -0.87023  -0.85525
  Beta  occ. eigenvalues --   -0.79617  -0.78084  -0.77387  -0.77106  -0.76678
  Beta  occ. eigenvalues --   -0.76285  -0.75822  -0.75491  -0.72744  -0.66656
  Beta  occ. eigenvalues --   -0.65499  -0.62029  -0.61767  -0.59977  -0.57921
  Beta  occ. eigenvalues --   -0.56667  -0.55593  -0.53486  -0.51809  -0.51476
  Beta  occ. eigenvalues --   -0.50670  -0.50567  -0.48785  -0.47940  -0.47596
  Beta  occ. eigenvalues --   -0.46507  -0.45926  -0.45104  -0.44822  -0.44131
  Beta  occ. eigenvalues --   -0.43304  -0.43024  -0.42540  -0.41975  -0.40906
  Beta  occ. eigenvalues --   -0.40446  -0.40146  -0.39339  -0.37999  -0.37762
  Beta  occ. eigenvalues --   -0.37060  -0.36440  -0.35974  -0.35878  -0.35728
  Beta  occ. eigenvalues --   -0.35178  -0.33906  -0.33452  -0.31721  -0.31427
  Beta  occ. eigenvalues --   -0.31109  -0.30947  -0.30632  -0.30045  -0.29080
  Beta  occ. eigenvalues --   -0.28313  -0.27686  -0.27390  -0.26132  -0.25593
  Beta virt. eigenvalues --   -0.15268  -0.12161  -0.11946  -0.11199  -0.10600
  Beta virt. eigenvalues --   -0.09754  -0.03191  -0.02827  -0.02208  -0.01397
  Beta virt. eigenvalues --   -0.01058  -0.00701  -0.00272   0.00549   0.00873

 Mulliken charges and spin densities:
               1          2
     1  C   -0.158906  -0.001369
     2  C    2.234501   0.009112
     3  C   -0.519831   0.003547
     4  C    0.042981   0.009711
     5  C    0.219625   0.001505
     6  C   -0.107333   0.002424
     7  C   -1.012752  -0.064156
     8  C    0.961561   0.017463
     9  C    0.558522   0.001454
    10  C    0.464816  -0.000620
    11  C    0.985576   0.024101
    12  C   -0.918962   0.017487
    13  C    0.104892  -0.006332
    14  O   -0.689438   0.255610
    15  Fe   0.611408   4.052615
    16  Cl  -0.534124   0.191635
    17  C    0.406167  -0.005723
    18  Cl  -0.430372   0.263841
    19  Cl  -0.543213   0.216976
    20  H   -0.215485   0.003037
    21  H   -0.187237  -0.000124
    22  H   -0.183188   0.000007
    23  H   -0.178185   0.000081
    24  H   -0.263871  -0.000001
    25  H   -0.262621  -0.000040
    26  C    0.815578   0.001570
    27  H   -0.135948  -0.000055
    28  H   -0.121111   0.000486
    29  H   -0.163139   0.000699
    30  H   -0.058092  -0.000034
    31  H   -0.242881  -0.000298
    32  H    0.023844   0.000277
    33  H    0.157444   0.001130
    34  H   -0.018264   0.000015
    35  H   -0.020547  -0.000337
    36  H    0.220435   0.002225
    37  H    0.036117   0.000224
    38  O   -0.674325   0.000100
    39  O   -0.624295   0.001512
    40  C    0.409431   0.000149
    41  C    0.106271   0.000068
    42  H   -0.026582  -0.000006
    43  H   -0.072864   0.000003
    44  H   -0.016993   0.000007
    45  H    0.003181   0.000006
    46  H    0.018207   0.000018
 Sum of Mulliken charges =  -0.00000   5.00000

 Dipole moment (field-independent basis, Debye):
    X=              2.6930    Y=              8.9818    Z=              0.9278  Tot=              9.4227
 Quadrupole moment (field-independent basis, Debye-Ang):
   XX=           -183.5349   YY=           -163.5751   ZZ=           -174.9245
   XY=            -31.1467   XZ=             -4.1454   YZ=             -0.4173

  Exact polarizability: 314.011 -15.567 310.764  22.132   6.556 257.543
 Approx polarizability: 447.766 -10.205 496.828  48.079  26.099 443.001

                      1                      2                      3
                      A                      A                      A
 Frequencies --     12.2974                25.4974                32.7084
 Red. masses --      4.3818                 7.0146                 6.0222
 Frc consts  --      0.0004                 0.0027                 0.0038
 IR Inten    --      0.7454                 0.4638                 1.9287

                      4                      5                      6
                      A                      A                      A
 Frequencies --     53.8697                56.4350                68.3671
 Red. masses --      5.2927                 4.2572                 5.7867
 Frc consts  --      0.0090                 0.0080                 0.0159
 IR Inten    --      1.6186                 0.3209                 0.4663

                      7                      8                      9
                      A                      A                      A
 Frequencies --     76.5896                82.9939                88.0360
 Red. masses --      5.0999                 2.5761                 9.0202
 Frc consts  --      0.0176                 0.0105                 0.0412
 IR Inten    --      0.7440                 0.3367                 0.0558

                     10                     11                     12
                      A                      A                      A
 Frequencies --    100.1812               106.7386               112.0890
 Red. masses --      5.2782                 7.8015                 9.5359
 Frc consts  --      0.0312                 0.0524                 0.0706
 IR Inten    --      1.1441                 1.0882                 1.7106

                     13                     14                     15
                      A                      A                      A
 Frequencies --    120.6449               129.7517               133.3532
 Red. masses --      7.7942                 5.7010                 7.5041
 Frc consts  --      0.0668                 0.0565                 0.0786
 IR Inten    --      3.1667                 2.8932                 9.1720

                     16                     17                     18
                      A                      A                      A
 Frequencies --    153.1557               156.7555               184.5448
 Red. masses --      3.5768                 5.3257                 3.1187
 Frc consts  --      0.0494                 0.0771                 0.0626
 IR Inten    --      9.4438                 1.4565                 3.8949

                     19                     20                     21
                      A                      A                      A
 Frequencies --    195.9519               204.2074               219.8853
 Red. masses --      1.6790                 2.2088                 2.9916
 Frc consts  --      0.0380                 0.0543                 0.0852
 IR Inten    --      8.5120                 7.1472                 1.0071

                     22                     23                     24
                      A                      A                      A
 Frequencies --    224.4205               250.4563               269.4813
 Red. masses --      2.0135                 2.7550                 1.9701
 Frc consts  --      0.0597                 0.1018                 0.0843
 IR Inten    --     22.6820                 5.6918                 3.3429

                     25                     26                     27
                      A                      A                      A
 Frequencies --    278.9270               297.7110               300.9864
 Red. masses --      2.6550                 1.7330                 5.3603
 Frc consts  --      0.1217                 0.0905                 0.2861
 IR Inten    --      1.3243                 5.1929                 1.5559

                     28                     29                     30
                      A                      A                      A
 Frequencies --    324.4098               336.2792               350.8931
 Red. masses --      8.5549                 6.4727                 2.9261
 Frc consts  --      0.5305                 0.4313                 0.2123
 IR Inten    --     17.3029                46.1283                22.4180

                     31                     32                     33
                      A                      A                      A
 Frequencies --    355.2766               365.4335               397.3834
 Red. masses --      4.9302                 4.0828                18.7597
 Frc consts  --      0.3666                 0.3212                 1.7454
 IR Inten    --     37.8834                 2.7609                75.7099

                     34                     35                     36
                      A                      A                      A
 Frequencies --    412.1124               415.9535               430.1433
 Red. masses --      3.7482                 4.2163                 3.9061
 Frc consts  --      0.3751                 0.4298                 0.4258
 IR Inten    --      2.9184                11.1582                10.2716

                     37                     38                     39
                      A                      A                      A
 Frequencies --    449.9992               482.3323               524.4206
 Red. masses --      3.1312                 2.7184                 2.4677
 Frc consts  --      0.3736                 0.3726                 0.3999
 IR Inten    --      6.7235                 7.0187                 7.6176

                     40                     41                     42
                      A                      A                      A
 Frequencies --    556.6551               626.8436               632.0659
 Red. masses --      3.1752                 5.5015                 4.0973
 Frc consts  --      0.5797                 1.2736                 0.9644
 IR Inten    --     19.6749                15.2771                 9.5284

                     43                     44                     45
                      A                      A                      A
 Frequencies --    637.0141               691.1869               699.3097
 Red. masses --      3.3054                 5.6159                 4.0785
 Frc consts  --      0.7903                 1.5807                 1.1751
 IR Inten    --     14.7525                 6.7215                 0.9518

                     46                     47                     48
                      A                      A                      A
 Frequencies --    704.9792               736.6005               745.3743
 Red. masses --      1.5568                 1.4626                 2.7866
 Frc consts  --      0.4559                 0.4675                 0.9122
 IR Inten    --     48.6472                36.2470                 6.9320

                     49                     50                     51
                      A                      A                      A
 Frequencies --    803.4067               806.7970               808.9663
 Red. masses --      1.7745                 1.9245                 2.5071
 Frc consts  --      0.6749                 0.7381                 0.9667
 IR Inten    --     26.4748                 4.4015                24.6569

                     52                     53                     54
                      A                      A                      A
 Frequencies --    818.2509               840.8707               850.2185
 Red. masses --      3.0728                 1.2650                 2.6688
 Frc consts  --      1.2122                 0.5270                 1.1367
 IR Inten    --      4.7051                 1.0384                15.9587

                     55                     56                     57
                      A                      A                      A
 Frequencies --    872.6419               885.0307               913.0178
 Red. masses --      2.6862                 3.1832                 2.2335
 Frc consts  --      1.2052                 1.4690                 1.0970
 IR Inten    --      5.0700                 5.1352                76.1798

                     58                     59                     60
                      A                      A                      A
 Frequencies --    927.6639               950.0111               971.6428
 Red. masses --      1.7281                 3.6179                 2.8150
 Frc consts  --      0.8762                 1.9238                 1.5658
 IR Inten    --     10.7290                29.3742                10.0821

                     61                     62                     63
                      A                      A                      A
 Frequencies --    978.5559               980.7255               998.7859
 Red. masses --      1.5667                 1.8481                 1.3679
 Frc consts  --      0.8839                 1.0473                 0.8040
 IR Inten    --      1.5143                 1.5065                 8.4273

                     64                     65                     66
                      A                      A                      A
 Frequencies --   1010.0439              1013.1547              1016.4478
 Red. masses --      2.4200                 4.9611                 1.5757
 Frc consts  --      1.4546                 3.0004                 0.9591
 IR Inten    --     26.1919                 1.4899                15.6982

                     67                     68                     69
                      A                      A                      A
 Frequencies --   1033.8172              1045.4862              1056.2226
 Red. masses --      2.1167                 2.8987                 2.2661
 Frc consts  --      1.3329                 1.8667                 1.4895
 IR Inten    --      9.8722                16.2833                 4.2245

                     70                     71                     72
                      A                      A                      A
 Frequencies --   1078.1513              1088.9181              1097.0998
 Red. masses --      1.9533                 2.2320                 3.1275
 Frc consts  --      1.3378                 1.5593                 2.2179
 IR Inten    --     64.9156                62.3448                78.9752

                     73                     74                     75
                      A                      A                      A
 Frequencies --   1119.2818              1134.2025              1154.5965
 Red. masses --      1.7164                 2.1247                 1.3370
 Frc consts  --      1.2669                 1.6104                 1.0501
 IR Inten    --     18.7810                14.8266                45.1141

                     76                     77                     78
                      A                      A                      A
 Frequencies --   1170.4310              1174.5076              1183.0306
 Red. masses --      1.5544                 1.0850                 1.4418
 Frc consts  --      1.2546                 0.8819                 1.1889
 IR Inten    --      3.9294                 0.9103                86.4506

                     79                     80                     81
                      A                      A                      A
 Frequencies --   1189.0357              1209.6252              1222.4879
 Red. masses --      2.1106                 1.1360                 2.9362
 Frc consts  --      1.7581                 0.9794                 2.5854
 IR Inten    --     40.6300                 2.8019               157.0758

                     82                     83                     84
                      A                      A                      A
 Frequencies --   1243.1492              1254.8059              1276.0158
 Red. masses --      1.5315                 1.4192                 1.6586
 Frc consts  --      1.3945                 1.3165                 1.5912
 IR Inten    --     82.1971                36.7203                12.0966

                     85                     86                     87
                      A                      A                      A
 Frequencies --   1286.7080              1300.1953              1308.8948
 Red. masses --      1.1000                 1.4713                 1.2139
 Frc consts  --      1.0730                 1.4654                 1.2253
 IR Inten    --      0.7118                19.7741                57.9050

                     88                     89                     90
                      A                      A                      A
 Frequencies --   1330.0218              1338.6925              1338.7403
 Red. masses --      1.6368                 1.2680                 1.3894
 Frc consts  --      1.7059                 1.3388                 1.4671
 IR Inten    --     13.5944                21.9191                 7.0113

                     91                     92                     93
                      A                      A                      A
 Frequencies --   1351.2565              1360.4798              1365.5104
 Red. masses --      1.4036                 2.8999                 1.3817
 Frc consts  --      1.5100                 3.1624                 1.5179
 IR Inten    --     52.1213                 0.3638                42.6185

                     94                     95                     96
                      A                      A                      A
 Frequencies --   1386.3933              1392.8597              1419.0409
 Red. masses --      1.2322                 1.5435                 1.1737
 Frc consts  --      1.3954                 1.7643                 1.3925
 IR Inten    --     23.5134                63.6335                11.3776

                     97                     98                     99
                      A                      A                      A
 Frequencies --   1420.6822              1438.1371              1471.1860
 Red. masses --      1.5385                 1.5860                 2.0565
 Frc consts  --      1.8295                 1.9327                 2.6225
 IR Inten    --      4.3902                68.5021                 5.8375

                    100                    101                    102
                      A                      A                      A
 Frequencies --   1475.1990              1476.9791              1486.0821
 Red. masses --      1.0401                 1.1563                 1.0529
 Frc consts  --      1.3336                 1.4862                 1.3700
 IR Inten    --      3.8159                 5.1486                 0.4550

                    103                    104                    105
                      A                      A                      A
 Frequencies --   1489.5056              1496.4317              1505.3099
 Red. masses --      1.1478                 1.1883                 1.0869
 Frc consts  --      1.5004                 1.5677                 1.4511
 IR Inten    --     15.9252                23.8380                 9.5602

                    106                    107                    108
                      A                      A                      A
 Frequencies --   1506.4876              1523.2243              1628.8780
 Red. masses --      1.5577                 2.1637                 5.8111
 Frc consts  --      2.0829                 2.9579                 9.0841
 IR Inten    --     45.5905                 9.8202                 0.6542

                    109                    110                    111
                      A                      A                      A
 Frequencies --   1649.2044              1765.6832              2595.8788
 Red. masses --      5.8632                11.3158                 1.0705
 Frc consts  --      9.3959                20.7855                 4.2503
 IR Inten    --      0.0521               170.9738               831.1239

                    112                    113                    114
                      A                      A                      A
 Frequencies --   2900.8833              3041.2169              3054.1717
 Red. masses --      1.0620                 1.0351                 1.0640
 Frc consts  --      5.2653                 5.6407                 5.8476
 IR Inten    --    101.8487                15.6874                18.7772

                    115                    116                    117
                      A                      A                      A
 Frequencies --   3061.4823              3076.2186              3083.5336
 Red. masses --      1.0583                 1.0638                 1.0664
 Frc consts  --      5.8440                 5.9310                 5.9741
 IR Inten    --     15.7573                22.6879                 0.9115

                    118                    119                    120
                      A                      A                      A
 Frequencies --   3088.9672              3107.0120              3109.9596
 Red. masses --      1.0648                 1.1066                 1.0987
 Frc consts  --      5.9864                 6.2941                 6.2610
 IR Inten    --      2.8590                 2.7963                 7.2401

                    121                    122                    123
                      A                      A                      A
 Frequencies --   3114.0293              3118.2989              3127.6835
 Red. masses --      1.0875                 1.1012                 1.1008
 Frc consts  --      6.2136                 6.3091                 6.3448
 IR Inten    --      1.4683                17.7762                 6.1805

                    124                    125                    126
                      A                      A                      A
 Frequencies --   3131.7306              3132.2579              3166.6015
 Red. masses --      1.0877                 1.1057                 1.1060
 Frc consts  --      6.2853                 6.3915                 6.5340
 IR Inten    --      1.5958                36.1384                 8.2167

                    127                    128                    129
                      A                      A                      A
 Frequencies --   3170.2547              3181.1581              3192.6246
 Red. masses --      1.0850                 1.0897                 1.0944
 Frc consts  --      6.4250                 6.4970                 6.5723
 IR Inten    --      0.0410                 8.2497                21.6307

                    130                    131                    132
                      A                      A                      A
 Frequencies --   3202.1469              3221.5680              3230.1862
 Red. masses --      1.0950                 1.1001                 1.0920
 Frc consts  --      6.6150                 6.7268                 6.7134
 IR Inten    --      9.7263                 1.3726                 3.1393

 - Thermochemistry -
 -------------------
 Temperature   298.150 Kelvin.  Pressure   1.00000 Atm.
 Atom     1 has atomic number  6 and mass  12.00000

 Molecular mass:   434.99839 amu.
 Principal axes and moments of inertia in atomic units:
                           1         2         3
     Eigenvalues --  7649.41948********************
           X            0.99702  -0.07625  -0.01135
           Y            0.07630   0.99708   0.00421
           Z            0.01100  -0.00507   0.99993
 This molecule is an asymmetric top.
 Rotational symmetry number  1.
 Warning -- assumption of classical behavior for rotation
           may cause significant error
 Rotational temperatures (Kelvin)      0.01132     0.00739     0.00620
 Rotational constants (GHZ):           0.23593     0.15408     0.12910
 Zero-point vibrational energy     942701.9 (Joules/Mol)
                                  225.31116 (Kcal/Mol)
 Warning -- explicit consideration of  40 degrees of freedom as
           vibrations may cause significant error
 Vibrational temperatures:     17.69    36.69    47.06    77.51    81.20
          (Kelvin)             98.36   110.20   119.41   126.66   144.14
                              153.57   161.27   173.58   186.68   191.87
                              220.36   225.54   265.52   281.93   293.81
                              316.37   322.89   360.35   387.72   401.31
                              428.34   433.05   466.75   483.83   504.86
                              511.16   525.78   571.75   592.94   598.46
                              618.88   647.45   693.97   754.52   800.90
                              901.89   909.40   916.52   994.46  1006.15
                             1014.31  1059.80  1072.43  1155.92  1160.80
                             1163.92  1177.28  1209.83  1223.27  1255.54
                             1273.36  1313.63  1334.70  1366.85  1397.98
                             1407.92  1411.05  1437.03  1453.23  1457.70
                             1462.44  1487.43  1504.22  1519.67  1551.22
                             1566.71  1578.48  1610.40  1631.86  1661.21
                             1683.99  1689.85  1702.12  1710.76  1740.38
                             1758.89  1788.61  1805.39  1835.90  1851.29
                             1870.69  1883.21  1913.60  1926.08  1926.15
                             1944.16  1957.43  1964.66  1994.71  2004.01
                             2041.68  2044.04  2069.16  2116.71  2122.48
                             2125.04  2138.14  2143.07  2153.03  2165.81
                             2167.50  2191.58  2343.59  2372.84  2540.42
                             3734.89  4173.72  4375.63  4394.27  4404.79
                             4425.99  4436.52  4444.33  4470.30  4474.54
                             4480.39  4486.54  4500.04  4505.86  4506.62
                             4556.03  4561.29  4576.98  4593.47  4607.18
                             4635.12  4647.52

 Zero-point correction=                           0.359056 (Hartree/Particle)
 Thermal correction to Energy=                    0.386183
 Thermal correction to Enthalpy=                  0.387128
 Thermal correction to Gibbs Free Energy=         0.297556
 Sum of electronic and zero-point Energies=          -3531.164699
 Sum of electronic and thermal Energies=             -3531.137572
 Sum of electronic and thermal Enthalpies=           -3531.136627
 Sum of electronic and thermal Free Energies=        -3531.226199

                     E (Thermal)             CV                S
                      KCal/Mol        Cal/Mol-Kelvin    Cal/Mol-Kelvin
 Total                  242.334             98.108            188.520
 Electronic               0.000              0.000              3.561
 Translational            0.889              2.981             44.100
 Rotational               0.889              2.981             35.481
 Vibrational            240.556             92.147            105.378
 Vibration     1          0.593              1.987              7.600
 Vibration     2          0.593              1.985              6.152
 Vibration     3          0.594              1.983              5.658
 Vibration     4          0.596              1.976              4.670
 Vibration     5          0.596              1.975              4.578
 Vibration     6          0.598              1.969              4.200
 Vibration     7          0.599              1.965              3.976
 Vibration     8          0.600              1.961              3.819
 Vibration     9          0.601              1.958              3.703
 Vibration    10          0.604              1.949              3.451
 Vibration    11          0.606              1.944              3.327
 Vibration    12          0.607              1.939              3.232
 Vibration    13          0.609              1.932              3.090
 Vibration    14          0.612              1.924              2.950
 Vibration    15          0.613              1.920              2.897
 Vibration    16          0.619              1.899              2.633
 Vibration    17          0.620              1.895              2.589
 Vibration    18          0.631              1.861              2.282
 Vibration    19          0.636              1.846              2.171
 Vibration    20          0.640              1.834              2.095
 Vibration    21          0.647              1.811              1.960
 Vibration    22          0.649              1.804              1.923
 Vibration    23          0.663              1.762              1.727
 Vibration    24          0.674              1.729              1.600
 Vibration    25          0.679              1.713              1.540
 Vibration    26          0.691              1.678              1.430
 Vibration    27          0.693              1.672              1.411
 Vibration    28          0.709              1.627              1.288
 Vibration    29          0.717              1.603              1.230
 Vibration    30          0.728              1.573              1.162
 Vibration    31          0.731              1.564              1.143
 Vibration    32          0.739              1.543              1.099
 Vibration    33          0.764              1.476              0.972
 Vibration    34          0.776              1.444              0.919
 Vibration    35          0.779              1.436              0.906
 Vibration    36          0.791              1.405              0.858
 Vibration    37          0.809              1.361              0.796
 Vibration    38          0.839              1.289              0.704
 Vibration    39          0.879              1.196              0.600
 Vibration    40          0.912              1.125              0.531

 Optimization completed.
    -- Stationary point found.
 Normal termination of Gaussian 16 at Tue Jun 15 16:51:55 2021.
