 Gaussian 16, Revision A.03,
 Gaussian 16:  ES64L-G16RevA.03 25-Dec-2016

 ----------------------------------------------------------------------
 #p opt freq=noraman b3lyp pop=none empiricaldispersion=gd3bj jul-cc-pv
 dz
 ----------------------------------------------------------------------

 -----
 title
 -----
 Symbolic Z-matrix:
 Charge =  0 Multiplicity = 6

 SCF Done:  E(UB3LYP) =  -3531.56486316     A.U. after   24 cycles
 Optimization completed.
    -- Stationary point found.
 Normal termination of Gaussian 16 at Fri Jun  4 17:13:09 2021.

 ----------------------------------------------------------------------
 #P Geom=AllCheck Guess=TCheck SCRF=Check GenChk UB3LYP/Jul-CC-pVDZ Fre
 q
 ----------------------------------------------------------------------

 Structure from the checkpoint file:  "/scratch/kwaneu.2863307.bmbhpcps002/Gau-53198.chk"
 -----
 title
 -----
 Charge =  0 Multiplicity = 6

                         Standard orientation:
 ---------------------------------------------------------------------
 Center     Atomic      Atomic             Coordinates (Angstroms)
 Number     Number       Type             X           Y           Z
 ---------------------------------------------------------------------
      1          6           0        2.968922   -1.711511   -1.231917
      2          6           0        2.006913   -0.680576   -1.280898
      3          6           0        2.324372    0.541155   -1.912281
      4          6           0        3.578368    0.724409   -2.482469
      5          6           0        4.532106   -0.299138   -2.417624
      6          6           0        4.228228   -1.513096   -1.790307
      7          6           0        0.692598   -0.844356   -0.666632
      8          6           0        0.220621   -2.189885   -0.150444
      9          6           0       -1.314190   -2.267055   -0.064450
     10          6           0       -1.979291   -2.268442   -1.452609
     11          6           0       -3.478735   -2.180343   -1.350367
     12          6           0       -4.203362   -1.048082   -1.341415
     13          6           0       -5.701095   -1.085747   -1.180512
     14          8           0       -0.075735    0.128739   -0.519810
     15          6           0       -3.618184    0.334222   -1.467175
     16          1           0        1.580409    1.333946   -1.963634
     17          1           0        3.817302    1.667443   -2.973457
     18          1           0        5.518233   -0.150101   -2.859690
     19          1           0        4.975636   -2.304360   -1.736306
     20          1           0        2.749239   -2.653800   -0.732962
     21          1           0        0.614444   -2.991237   -0.783197
     22          6           0        0.855544   -2.392849    1.235050
     23          1           0       -1.584267   -3.183329    0.479727
     24          1           0       -1.681068   -1.420087    0.524905
     25          1           0       -1.589123   -1.427958   -2.042245
     26          1           0       -1.693686   -3.187877   -1.987647
     27          1           0       -4.009643   -3.129241   -1.225443
     28          1           0       -3.776209    0.902061   -0.537347
     29          1           0       -2.543027    0.336851   -1.672831
     30          1           0       -4.123979    0.895150   -2.268454
     31          1           0       -6.011894   -0.504165   -0.297626
     32          1           0       -6.199530   -0.626327   -2.049484
     33          1           0       -6.073924   -2.112556   -1.069106
     34          8           0        0.503998   -1.404344    2.058061
     35          8           0        1.569253   -3.329490    1.520264
     36          6           0        1.037909   -1.445211    3.415229
     37          6           0        0.451583   -0.268082    4.162214
     38          1           0        0.762584   -2.411471    3.857208
     39          1           0        2.132489   -1.397105    3.343013
     40          1           0        0.827302   -0.274785    5.195208
     41          1           0        0.738760    0.678026    3.687507
     42          1           0       -0.644420   -0.326658    4.186554
     43         26           0       -0.196855    1.900872    0.344207
     44         17           0        1.767642    2.090365    1.311962
     45         17           0       -0.498018    3.284580   -1.329817
     46         17           0       -1.873235    1.758772    1.745351
 ---------------------------------------------------------------------

 SCF Done:  E(UB3LYP) =  -3531.56486316     A.U. after    2 cycles

 Isotropic polarizability for W=    0.000000      304.21 Bohr**3.
 End of Minotr F.D. properties file   721 does not exist.

                      1                      2                      3
                      A                      A                      A
 Frequencies --      6.4347                18.2715                26.0285
 Red. masses --      6.2631                 5.3379                 5.5333
 Frc consts  --      0.0002                 0.0010                 0.0022
 IR Inten    --      0.7394                 0.4423                 0.5076

                      4                      5                      6
                      A                      A                      A
 Frequencies --     32.3203                38.0765                43.5115
 Red. masses --      6.6531                 7.0001                 5.2344
 Frc consts  --      0.0041                 0.0060                 0.0058
 IR Inten    --      0.5127                 0.4633                 0.4301

                      7                      8                      9
                      A                      A                      A
 Frequencies --     56.2383                60.8614                66.8042
 Red. masses --      5.0900                 4.0208                 2.9845
 Frc consts  --      0.0095                 0.0088                 0.0078
 IR Inten    --      0.9033                 0.8046                 0.2719

                     10                     11                     12
                      A                      A                      A
 Frequencies --     68.2142                72.0650                82.0277
 Red. masses --      3.6625                 4.8330                 9.4979
 Frc consts  --      0.0100                 0.0148                 0.0377
 IR Inten    --      0.1115                 0.5824                 0.2491

                     13                     14                     15
                      A                      A                      A
 Frequencies --     86.6097               100.1722               108.1528
 Red. masses --      5.5800                 5.5649                 3.4895
 Frc consts  --      0.0247                 0.0329                 0.0240
 IR Inten    --      1.1204                 0.5527                 0.3931

                     16                     17                     18
                      A                      A                      A
 Frequencies --    113.4074               120.6923               133.2716
 Red. masses --     10.4141                16.0927                 1.8866
 Frc consts  --      0.0789                 0.1381                 0.0197
 IR Inten    --      2.7524                 2.7126                 3.7883

                     19                     20                     21
                      A                      A                      A
 Frequencies --    137.9238               150.0485               166.5824
 Red. masses --      1.8319                 3.3374                 6.0087
 Frc consts  --      0.0205                 0.0443                 0.0982
 IR Inten    --      3.7320                 1.1284                 6.5991

                     22                     23                     24
                      A                      A                      A
 Frequencies --    189.8832               199.6826               217.8907
 Red. masses --      1.5518                 3.2691                 1.7299
 Frc consts  --      0.0330                 0.0768                 0.0484
 IR Inten    --      1.1777                 2.1991                 1.8102

                     25                     26                     27
                      A                      A                      A
 Frequencies --    257.3111               262.0899               278.0538
 Red. masses --      1.5329                 4.0097                 7.5035
 Frc consts  --      0.0598                 0.1623                 0.3418
 IR Inten    --      2.2483                 3.0522                14.0073

                     28                     29                     30
                      A                      A                      A
 Frequencies --    309.6169               333.3701               345.1406
 Red. masses --      2.3639                 5.6195                 9.1392
 Frc consts  --      0.1335                 0.3680                 0.6414
 IR Inten    --      0.8085                 6.4370                21.1918

                     31                     32                     33
                      A                      A                      A
 Frequencies --    347.9742               375.6955               384.7928
 Red. masses --      4.9863                 4.3604                 2.8573
 Frc consts  --      0.3557                 0.3626                 0.2493
 IR Inten    --      4.8424                22.3350                 7.0670

                     34                     35                     36
                      A                      A                      A
 Frequencies --    405.5789               407.7734               409.3317
 Red. masses --      3.4506                 2.9418                14.6015
 Frc consts  --      0.3344                 0.2882                 1.4414
 IR Inten    --     13.9782                 3.1914                77.1359

                     37                     38                     39
                      A                      A                      A
 Frequencies --    415.6379               425.4740               451.1784
 Red. masses --     25.3290                 3.9439                 3.1153
 Frc consts  --      2.5781                 0.4207                 0.3736
 IR Inten    --     83.8066                 3.7352                13.1970

                     40                     41                     42
                      A                      A                      A
 Frequencies --    487.9037               525.6861               565.3118
 Red. masses --      2.6384                 5.1775                 3.1101
 Frc consts  --      0.3700                 0.8430                 0.5856
 IR Inten    --      3.6433                11.0004                 6.1516

                     43                     44                     45
                      A                      A                      A
 Frequencies --    622.3809               630.9505               671.1646
 Red. masses --      6.2087                 5.7021                 3.5455
 Frc consts  --      1.4170                 1.3374                 0.9410
 IR Inten    --      0.9694                12.3684                10.4512

                     46                     47                     48
                      A                      A                      A
 Frequencies --    688.5892               725.7238               743.3545
 Red. masses --      1.7447                 3.7757                 1.6531
 Frc consts  --      0.4874                 1.1716                 0.5382
 IR Inten    --     37.1474                 8.2168                 4.9199

                     49                     50                     51
                      A                      A                      A
 Frequencies --    760.4282               796.0977               806.8245
 Red. masses --      2.4801                 2.9966                 1.1316
 Frc consts  --      0.8450                 1.1189                 0.4340
 IR Inten    --     29.1732                 1.8028                 1.8370

                     52                     53                     54
                      A                      A                      A
 Frequencies --    825.0866               836.9954               847.6979
 Red. masses --      2.7561                 1.6014                 1.2830
 Frc consts  --      1.1055                 0.6610                 0.5432
 IR Inten    --      0.6865                20.9118                 2.0170

                     55                     56                     57
                      A                      A                      A
 Frequencies --    854.6121               881.9919               951.8193
 Red. masses --      2.6425                 3.0103                 2.5367
 Frc consts  --      1.1371                 1.3797                 1.3540
 IR Inten    --      9.1800                 6.8653                 3.2377

                     58                     59                     60
                      A                      A                      A
 Frequencies --    962.3286               967.4753               978.8790
 Red. masses --      1.3966                 1.7825                 3.0541
 Frc consts  --      0.7620                 0.9830                 1.7242
 IR Inten    --      0.3477                 3.8741                27.0384

                     61                     62                     63
                      A                      A                      A
 Frequencies --    996.8140              1000.8980              1002.1830
 Red. masses --      1.4942                 1.3054                 3.3355
 Frc consts  --      0.8748                 0.7705                 1.9738
 IR Inten    --      1.0838                 5.0587                 5.4123

                     64                     65                     66
                      A                      A                      A
 Frequencies --   1012.6286              1016.2262              1035.7663
 Red. masses --      2.0690                 1.5005                 2.8336
 Frc consts  --      1.2500                 0.9130                 1.7911
 IR Inten    --      9.7695                 6.0426                10.9828

                     67                     68                     69
                      A                      A                      A
 Frequencies --   1050.2248              1052.9840              1065.2259
 Red. masses --      2.2512                 3.5333                 1.9992
 Frc consts  --      1.4629                 2.3082                 1.3366
 IR Inten    --      4.0878                71.4394                15.3574

                     70                     71                     72
                      A                      A                      A
 Frequencies --   1086.9407              1098.1171              1122.5093
 Red. masses --      2.5566                 1.6999                 1.6105
 Frc consts  --      1.7796                 1.2078                 1.1956
 IR Inten    --      3.8328                 0.0932                 3.5450

                     73                     74                     75
                      A                      A                      A
 Frequencies --   1129.1299              1135.8020              1170.0311
 Red. masses --      1.8368                 2.1676                 1.5524
 Frc consts  --      1.3798                 1.6475                 1.2521
 IR Inten    --     15.8296                 8.4207                 8.6749

                     76                     77                     78
                      A                      A                      A
 Frequencies --   1174.4688              1181.7154              1202.4082
 Red. masses --      1.5203                 1.0873                 2.0825
 Frc consts  --      1.2356                 0.8946                 1.7740
 IR Inten    --      5.0073                 0.5807               210.4450

                     79                     80                     81
                      A                      A                      A
 Frequencies --   1209.6737              1246.4575              1264.1251
 Red. masses --      1.1473                 2.0396                 2.1891
 Frc consts  --      0.9892                 1.8670                 2.0610
 IR Inten    --     31.2542                45.9501               215.0807

                     82                     83                     84
                      A                      A                      A
 Frequencies --   1280.6909              1284.6854              1313.8832
 Red. masses --      1.6215                 1.1088                 1.3740
 Frc consts  --      1.5670                 1.0782                 1.3975
 IR Inten    --     30.6602                 2.4747                16.6437

                     85                     86                     87
                      A                      A                      A
 Frequencies --   1318.7783              1339.7400              1360.4961
 Red. masses --      1.4414                 1.5212                 1.3786
 Frc consts  --      1.4770                 1.6087                 1.5034
 IR Inten    --     72.1412                 5.0663                13.5285

                     88                     89                     90
                      A                      A                      A
 Frequencies --   1374.2319              1377.7428              1382.7051
 Red. masses --      1.4617                 3.0457                 1.3824
 Frc consts  --      1.6265                 3.4062                 1.5572
 IR Inten    --     11.3752                 5.8686                13.4247

                     91                     92                     93
                      A                      A                      A
 Frequencies --   1384.8412              1401.4866              1411.7448
 Red. masses --      1.9661                 1.3915                 1.3078
 Frc consts  --      2.2216                 1.6103                 1.5357
 IR Inten    --     66.2757                 6.7873                 3.1854

                     94                     95                     96
                      A                      A                      A
 Frequencies --   1418.5806              1462.6495              1469.5195
 Red. masses --      1.4018                 1.0485                 1.0776
 Frc consts  --      1.6620                 1.3215                 1.3711
 IR Inten    --     14.4232                 3.4441                13.2920

                     97                     98                     99
                      A                      A                      A
 Frequencies --   1471.9142              1473.9497              1480.8319
 Red. masses --      2.3155                 1.0385                 1.0493
 Frc consts  --      2.9557                 1.3293                 1.3557
 IR Inten    --     27.1224                 6.2099                17.1554

                    100                    101                    102
                      A                      A                      A
 Frequencies --   1482.4300              1485.1091              1486.5119
 Red. masses --      1.0693                 1.0525                 1.0801
 Frc consts  --      1.3845                 1.3677                 1.4063
 IR Inten    --     10.6032                 4.9102                 3.3887

                    103                    104                    105
                      A                      A                      A
 Frequencies --   1497.3757              1505.8441              1521.8707
 Red. masses --      1.0900                 1.0857                 2.2353
 Frc consts  --      1.4399                 1.4506                 3.0503
 IR Inten    --     10.1109                 7.8556                11.5239

                    106                    107                    108
                      A                      A                      A
 Frequencies --   1597.6259              1627.6158              1650.4359
 Red. masses --      6.6237                 6.0790                 6.3422
 Frc consts  --      9.9609                 9.4883                10.1785
 IR Inten    --    500.7674               212.9791                66.1947

                    109                    110                    111
                      A                      A                      A
 Frequencies --   1732.0927              1774.9035              3011.6009
 Red. masses --      6.6817                11.5746                 1.0376
 Frc consts  --     11.8108                21.4835                 5.5444
 IR Inten    --     14.6412               287.0374                37.0730

                    112                    113                    114
                      A                      A                      A
 Frequencies --   3025.4471              3027.4068              3046.0380
 Red. masses --      1.0460                 1.0599                 1.0360
 Frc consts  --      5.6412                 5.7236                 5.6635
 IR Inten    --     36.4590                17.0733                13.9407

                    115                    116                    117
                      A                      A                      A
 Frequencies --   3054.0330              3063.6516              3064.0877
 Red. masses --      1.0690                 1.0580                 1.0992
 Frc consts  --      5.8747                 5.8509                 6.0803
 IR Inten    --     11.5600                17.3482                15.5587

                    118                    119                    120
                      A                      A                      A
 Frequencies --   3076.2719              3080.6889              3111.1219
 Red. masses --      1.0983                 1.0930                 1.1004
 Frc consts  --      6.1239                 6.1116                 6.2754
 IR Inten    --     16.6067                16.3839                16.6411

                    121                    122                    123
                      A                      A                      A
 Frequencies --   3111.7797              3113.3863              3123.3318
 Red. masses --      1.1079                 1.0868                 1.1013
 Frc consts  --      6.3209                 6.2066                 6.3296
 IR Inten    --      9.3588                 2.5252                18.0638

                    124                    125                    126
                      A                      A                      A
 Frequencies --   3129.0596              3132.1037              3141.9771
 Red. masses --      1.0895                 1.0963                 1.0960
 Frc consts  --      6.2849                 6.3364                 6.3746
 IR Inten    --     31.9962                16.4524                28.2398

                    127                    128                    129
                      A                      A                      A
 Frequencies --   3143.7800              3179.3335              3193.7018
 Red. masses --      1.1046                 1.0865                 1.0900
 Frc consts  --      6.4319                 6.4708                 6.5501
 IR Inten    --     12.8196                 1.1785                 6.2042

                    130                    131                    132
                      A                      A                      A
 Frequencies --   3200.0833              3210.6947              3213.3032
 Red. masses --      1.0936                 1.0949                 1.0967
 Frc consts  --      6.5984                 6.6502                 6.6715
 IR Inten    --      3.4857                 1.2598                10.5274

 - Thermochemistry -
 -------------------
 Temperature   298.150 Kelvin.  Pressure   1.00000 Atm.
 Atom     1 has atomic number  6 and mass  12.00000

 Molecular mass:   434.99839 amu.
 Principal axes and moments of inertia in atomic units:
                           1         2         3
     Eigenvalues --  9983.65219********************
           X            0.99934   0.03196   0.01703
           Y           -0.03173   0.99940  -0.01376
           Z           -0.01746   0.01321   0.99976
 This molecule is an asymmetric top.
 Rotational symmetry number  1.
 Warning -- assumption of classical behavior for rotation
           may cause significant error
 Rotational temperatures (Kelvin)      0.00868     0.00671     0.00613
 Rotational constants (GHZ):           0.18077     0.13986     0.12766
 Zero-point vibrational energy     944529.4 (Joules/Mol)
                                  225.74795 (Kcal/Mol)
 Warning -- explicit consideration of  42 degrees of freedom as
           vibrations may cause significant error
 Vibrational temperatures:      9.26    26.29    37.45    46.50    54.78
          (Kelvin)             62.60    80.91    87.57    96.12    98.15
                              103.69   118.02   124.61   144.13   155.61
                              163.17   173.65   191.75   198.44   215.89
                              239.67   273.20   287.30   313.50   370.21
                              377.09   400.06   445.47   479.65   496.58
                              500.66   540.54   553.63   583.54   586.70
                              588.94   598.01   612.16   649.15   701.98
                              756.34   813.36   895.47   907.80   965.66
                              990.73  1044.15  1069.52  1094.09  1145.41
                             1160.84  1187.12  1204.25  1219.65  1229.60
                             1268.99  1369.46  1384.58  1391.98  1408.39
                             1434.19  1440.07  1441.92  1456.95  1462.12
                             1490.24  1511.04  1515.01  1532.62  1563.87
                             1579.95  1615.04  1624.57  1634.17  1683.41
                             1689.80  1700.22  1730.00  1740.45  1793.37
                             1818.79  1842.63  1848.38  1890.38  1897.43
                             1927.59  1957.45  1977.21  1982.26  1989.40
                             1992.48  2016.43  2031.19  2041.02  2104.43
                             2114.31  2117.76  2120.68  2130.59  2132.89
                             2136.74  2138.76  2154.39  2166.57  2189.63
                             2298.63  2341.78  2374.61  2492.10  2553.69
                             4333.02  4352.94  4355.76  4382.57  4394.07
                             4407.91  4408.54  4426.07  4432.42  4476.21
                             4477.16  4479.47  4493.78  4502.02  4506.40
                             4520.60  4523.20  4574.35  4595.02  4604.21
                             4619.47  4623.23

 Zero-point correction=                           0.359752 (Hartree/Particle)
 Thermal correction to Energy=                    0.388697
 Thermal correction to Enthalpy=                  0.389641
 Thermal correction to Gibbs Free Energy=         0.291905
 Sum of electronic and zero-point Energies=          -3531.205111
 Sum of electronic and thermal Energies=             -3531.176166
 Sum of electronic and thermal Enthalpies=           -3531.175222
 Sum of electronic and thermal Free Energies=        -3531.272959

                     E (Thermal)             CV                S
                      KCal/Mol        Cal/Mol-Kelvin    Cal/Mol-Kelvin
 Total                  243.911             99.691            205.705
 Electronic               0.000              0.000              3.561
 Translational            0.889              2.981             44.100
 Rotational               0.889              2.981             35.853
 Vibrational            242.134             93.729            122.191
 Vibration     1          0.593              1.987              8.887
 Vibration     2          0.593              1.986              6.814
 Vibration     3          0.593              1.985              6.111
 Vibration     4          0.594              1.983              5.682
 Vibration     5          0.594              1.982              5.357
 Vibration     6          0.595              1.980              5.092
 Vibration     7          0.596              1.975              4.585
 Vibration     8          0.597              1.973              4.429
 Vibration     9          0.598              1.970              4.245
 Vibration    10          0.598              1.969              4.204
 Vibration    11          0.598              1.967              4.096
 Vibration    12          0.600              1.961              3.842
 Vibration    13          0.601              1.959              3.735
 Vibration    14          0.604              1.949              3.451
 Vibration    15          0.606              1.943              3.302
 Vibration    16          0.607              1.938              3.210
 Vibration    17          0.609              1.932              3.089
 Vibration    18          0.613              1.920              2.898
 Vibration    19          0.614              1.915              2.832
 Vibration    20          0.618              1.903              2.672
 Vibration    21          0.624              1.884              2.474
 Vibration    22          0.633              1.854              2.229
 Vibration    23          0.638              1.840              2.136
 Vibration    24          0.646              1.814              1.977
 Vibration    25          0.667              1.750              1.680
 Vibration    26          0.669              1.742              1.648
 Vibration    27          0.679              1.714              1.546
 Vibration    28          0.699              1.655              1.364
 Vibration    29          0.715              1.609              1.244
 Vibration    30          0.724              1.585              1.188
 Vibration    31          0.726              1.579              1.175
 Vibration    32          0.747              1.522              1.056
 Vibration    33          0.754              1.503              1.020
 Vibration    34          0.771              1.458              0.942
 Vibration    35          0.772              1.453              0.935
 Vibration    36          0.774              1.450              0.929
 Vibration    37          0.779              1.436              0.907
 Vibration    38          0.787              1.415              0.874
 Vibration    39          0.810              1.358              0.792
 Vibration    40          0.844              1.277              0.689
 Vibration    41          0.881              1.193              0.597
 Vibration    42          0.921              1.106              0.513

                           ! Non-Optimized Parameters !
 Normal termination of Gaussian 16 at Fri Jun  4 21:07:01 2021.
