 Gaussian 16, Revision A.03,
 Gaussian 16:  ES64L-G16RevA.03 25-Dec-2016

 ----------------------------------------------------------------------
 #p opt=(calcfc,ts,noeigentest,maxstep=5) freq=noraman ub3lyp empirical
 dispersion=gd3bj jul-cc-pvdz pop=cm5
 ----------------------------------------------------------------------

 -----
 title
 -----
 Symbolic Z-matrix:
 Charge =  0 Multiplicity = 6

 SCF Done:  E(UB3LYP) =  -3531.52546071     A.U. after   23 cycles
 Optimization completed.
    -- Stationary point found.
 Normal termination of Gaussian 16 at Mon Jun 21 22:22:39 2021.

 ----------------------------------------------------------------------
 #P Geom=AllCheck Guess=TCheck SCRF=Check GenChk UB3LYP/Jul-CC-pVDZ Fre
 q
 ----------------------------------------------------------------------

 Structure from the checkpoint file:  "/scratch/kwaneu.2874806.bmbhpcps002/Gau-69680.chk"
 -----
 title
 -----
 Charge =  0 Multiplicity = 6

                         Standard orientation:
 ---------------------------------------------------------------------
 Center     Atomic      Atomic             Coordinates (Angstroms)
 Number     Number       Type             X           Y           Z
 ---------------------------------------------------------------------
      1          6           0        2.808890   -1.981635   -0.194257
      2          6           0        1.613051   -1.445091    0.308473
      3          6           0        1.436940   -1.361599    1.695177
      4          6           0        2.438597   -1.810547    2.562637
      5          6           0        3.622552   -2.348631    2.055408
      6          6           0        3.806320   -2.431935    0.669623
      7          6           0        0.526951   -0.914284   -0.615739
      8          6           0        1.041420    0.220074   -1.556419
      9          6           0        0.027034    0.244571   -2.707333
     10          6           0       -0.131681   -1.246376   -3.054411
     11          6           0        0.070110   -2.040567   -1.745250
     12          6           0       -1.073440   -2.741538   -1.145073
     13          6           0       -0.762162   -3.825396   -0.183884
     14          8           0       -0.592012   -0.561971    0.073704
     15         26           0       -1.625946    0.900206    0.633558
     16         17           0       -1.151461    1.715387    2.640131
     17          6           0       -2.426567   -2.338965   -1.321899
     18         17           0       -3.372388   -0.616875    1.149564
     19         17           0       -2.682055    2.097701   -0.934158
     20          1           0        0.518886   -0.928921    2.087092
     21          1           0        2.288336   -1.733077    3.639909
     22          1           0        4.402321   -2.699544    2.732528
     23          1           0        4.729823   -2.846272    0.263255
     24          1           0        2.972446   -2.049954   -1.271416
     25          1           0        2.031442   -0.052893   -1.939644
     26          6           0        1.176040    1.520001   -0.808534
     27          1           0       -0.918430    0.679307   -2.364644
     28          1           0        0.382298    0.836679   -3.559390
     29          1           0       -1.092887   -1.457361   -3.536461
     30          1           0        0.650342   -1.552398   -3.762513
     31          1           0        0.903172   -2.746150   -1.825920
     32          1           0       -2.643270   -1.669736   -2.156002
     33          1           0       -2.619829   -1.700881   -0.352768
     34          1           0       -3.160558   -3.143388   -1.195250
     35          1           0       -1.647636   -4.178573    0.353612
     36          1           0       -0.301092   -4.665486   -0.728486
     37          1           0        0.001449   -3.471077    0.527943
     38          8           0        2.361673    2.101565   -1.003618
     39          8           0        0.314014    2.013281   -0.098115
     40          6           0        2.573662    3.365386   -0.302987
     41          6           0        3.981390    3.822406   -0.615087
     42          1           0        1.811340    4.075053   -0.648914
     43          1           0        2.412222    3.188108    0.767538
     44          1           0        4.174371    4.775251   -0.102540
     45          1           0        4.719530    3.086343   -0.268506
     46          1           0        4.116629    3.975746   -1.694509
 ---------------------------------------------------------------------

 SCF Done:  E(UB3LYP) =  -3531.52546071     A.U. after    2 cycles

 The electronic state is 6-A.
 Alpha  occ. eigenvalues -- -256.17342-101.48668-101.48227-101.48155 -30.16776
 Alpha  occ. eigenvalues --  -26.02173 -26.01988 -26.01832 -19.21672 -19.16869
 Alpha  occ. eigenvalues --  -19.13567 -10.34100 -10.31302 -10.29346 -10.25809
 Alpha  occ. eigenvalues --  -10.24064 -10.23626 -10.22786 -10.22450 -10.22211
 Alpha  occ. eigenvalues --  -10.21733 -10.21544 -10.21400 -10.21151 -10.20952
 Alpha  occ. eigenvalues --  -10.20866 -10.20456 -10.19998  -9.40330  -9.39921
 Alpha  occ. eigenvalues --   -9.39860  -7.16161  -7.15984  -7.15794  -7.15769
 Alpha  occ. eigenvalues --   -7.15729  -7.15488  -7.15437  -7.15413  -7.15401
 Alpha  occ. eigenvalues --   -3.64593  -2.42199  -2.41997  -2.41615  -1.13735
 Alpha  occ. eigenvalues --   -1.05102  -1.02880  -0.89723  -0.87939  -0.85651
 Alpha  occ. eigenvalues --   -0.80175  -0.78706  -0.76876  -0.76792  -0.76412
 Alpha  occ. eigenvalues --   -0.75822  -0.75422  -0.75006  -0.72668  -0.67584
 Alpha  occ. eigenvalues --   -0.64928  -0.63048  -0.62285  -0.60418  -0.58367
 Alpha  occ. eigenvalues --   -0.57139  -0.55209  -0.54590  -0.52506  -0.51953
 Alpha  occ. eigenvalues --   -0.51508  -0.50476  -0.49882  -0.49364  -0.47884
 Alpha  occ. eigenvalues --   -0.47082  -0.46260  -0.45435  -0.45060  -0.44851
 Alpha  occ. eigenvalues --   -0.44585  -0.44519  -0.44284  -0.43915  -0.43817
 Alpha  occ. eigenvalues --   -0.42893  -0.42502  -0.42048  -0.41380  -0.40890
 Alpha  occ. eigenvalues --   -0.40786  -0.40269  -0.38836  -0.38470  -0.37711
 Alpha  occ. eigenvalues --   -0.37312  -0.37247  -0.36790  -0.36545  -0.36129
 Alpha  occ. eigenvalues --   -0.33627  -0.33169  -0.32538  -0.31300  -0.29006
 Alpha  occ. eigenvalues --   -0.28182  -0.28051  -0.27971  -0.27516  -0.27433
 Alpha  occ. eigenvalues --   -0.27044  -0.26349  -0.26075  -0.25978  -0.25661
 Alpha virt. eigenvalues --   -0.13550  -0.03989  -0.03410  -0.03073  -0.02708
 Alpha virt. eigenvalues --   -0.01405  -0.00958  -0.00655   0.00297   0.00984
 Alpha virt. eigenvalues --    0.01239   0.01622   0.01852   0.02549   0.02695

  Beta  occ. eigenvalues -- -256.17158-101.48539-101.48050-101.47964 -30.07755
  Beta  occ. eigenvalues --  -25.94562 -25.94447 -25.94435 -19.21660 -19.16728
  Beta  occ. eigenvalues --  -19.12970 -10.34104 -10.31292 -10.29331 -10.25809
  Beta  occ. eigenvalues --  -10.24042 -10.23626 -10.22772 -10.22448 -10.22212
  Beta  occ. eigenvalues --  -10.21716 -10.21542 -10.21398 -10.21152 -10.20953
  Beta  occ. eigenvalues --  -10.20866 -10.20458 -10.19998  -9.40202  -9.39747
  Beta  occ. eigenvalues --   -9.39673  -7.15869  -7.15858  -7.15632  -7.15496
  Beta  occ. eigenvalues --   -7.15423  -7.15251  -7.15204  -7.15159  -7.15131
  Beta  occ. eigenvalues --   -3.43575  -2.19869  -2.19758  -2.19741  -1.13648
  Beta  occ. eigenvalues --   -1.04882  -1.01824  -0.89567  -0.87906  -0.85585
  Beta  occ. eigenvalues --   -0.80163  -0.78615  -0.76787  -0.76722  -0.76096
  Beta  occ. eigenvalues --   -0.74992  -0.74233  -0.74132  -0.72579  -0.67495
  Beta  occ. eigenvalues --   -0.64877  -0.62979  -0.62267  -0.60297  -0.58152
  Beta  occ. eigenvalues --   -0.56823  -0.55057  -0.54440  -0.52111  -0.51494
  Beta  occ. eigenvalues --   -0.51378  -0.50192  -0.49626  -0.48599  -0.47795
  Beta  occ. eigenvalues --   -0.46750  -0.46096  -0.44813  -0.44607  -0.44345
  Beta  occ. eigenvalues --   -0.44108  -0.43376  -0.42239  -0.41443  -0.41070
  Beta  occ. eigenvalues --   -0.40850  -0.40782  -0.38979  -0.38508  -0.37718
  Beta  occ. eigenvalues --   -0.37396  -0.37281  -0.36750  -0.36572  -0.36128
  Beta  occ. eigenvalues --   -0.33969  -0.33286  -0.32473  -0.31838  -0.31693
  Beta  occ. eigenvalues --   -0.30148  -0.29626  -0.28752  -0.28398  -0.27778
  Beta  occ. eigenvalues --   -0.27631  -0.26646  -0.26298  -0.25907  -0.25459
  Beta virt. eigenvalues --   -0.13557  -0.11232  -0.11042  -0.09527  -0.09376
  Beta virt. eigenvalues --   -0.08669  -0.03953  -0.03396  -0.03057  -0.02578
  Beta virt. eigenvalues --   -0.01392  -0.00953  -0.00644   0.00307   0.01002

 Mulliken charges and spin densities:
               1          2
     1  C   -0.155309  -0.000503
     2  C    2.716981   0.010612
     3  C   -0.376703  -0.006605
     4  C   -0.041811   0.003398
     5  C    0.278350  -0.001084
     6  C   -0.210603   0.001006
     7  C   -2.401636  -0.011021
     8  C    0.602442   0.014920
     9  C    0.610018  -0.004028
    10  C    0.529195   0.001003
    11  C    0.958767   0.019437
    12  C   -0.362096   0.003024
    13  C    0.368156   0.000163
    14  O   -0.521895   0.196349
    15  Fe   0.672696   4.061201
    16  Cl  -0.443196   0.265522
    17  C    0.138717  -0.000402
    18  Cl  -0.527323   0.166574
    19  Cl  -0.500215   0.239480
    20  H   -0.191591   0.001657
    21  H   -0.160952  -0.000006
    22  H   -0.182353   0.000007
    23  H   -0.177573   0.000176
    24  H   -0.213803   0.000006
    25  H   -0.223174   0.000517
    26  C    0.557311  -0.015413
    27  H    0.018915   0.001532
    28  H   -0.167048   0.000097
    29  H   -0.133321   0.000157
    30  H   -0.114388   0.000070
    31  H   -0.224493  -0.000126
    32  H    0.024640  -0.000192
    33  H    0.300088   0.000345
    34  H   -0.019590  -0.000331
    35  H   -0.026129   0.000011
    36  H    0.032535   0.000113
    37  H    0.126774   0.000207
    38  O   -0.696971   0.002798
    39  O   -0.330739   0.048467
    40  C    0.433440   0.000675
    41  C    0.091504   0.000141
    42  H   -0.047346   0.000044
    43  H   -0.034697  -0.000060
    44  H   -0.008561   0.000042
    45  H    0.016417   0.000006
    46  H    0.016571   0.000011
 Sum of Mulliken charges =  -0.00000   5.00000

 Dipole moment (field-independent basis, Debye):
    X=              8.2500    Y=             -7.5138    Z=             -6.2179  Tot=             12.7743
 Quadrupole moment (field-independent basis, Debye-Ang):
   XX=           -182.7674   YY=           -155.6584   ZZ=           -174.2255
   XY=             17.5084   XZ=              9.0784   YZ=              2.5504

  Exact polarizability: 335.707 -14.150 293.289   6.925   9.065 291.048
 Approx polarizability: 512.605 -40.970 432.114 -10.264  30.385 497.762

 ******    1 imaginary frequencies (negative Signs) ******

                      1                      2                      3
                      A                      A                      A
 Frequencies --    -59.9677                10.4728                25.9459
 Red. masses --      4.7396                 5.1067                 6.6932
 Frc consts  --      0.0100                 0.0003                 0.0027
 IR Inten    --     17.7106                 0.3754                 0.3217

                      4                      5                      6
                      A                      A                      A
 Frequencies --     44.8909                54.1798                54.3231
 Red. masses --      6.1465                 3.2327                 4.3393
 Frc consts  --      0.0073                 0.0056                 0.0075
 IR Inten    --      1.5590                 0.3828                 3.9657

                      7                      8                      9
                      A                      A                      A
 Frequencies --     61.5738                65.4991                69.4734
 Red. masses --      5.4740                 2.3320                 1.3313
 Frc consts  --      0.0122                 0.0059                 0.0038
 IR Inten    --      3.2628                 1.4188                 4.1145

                     10                     11                     12
                      A                      A                      A
 Frequencies --     78.2938                85.0901                99.0520
 Red. masses --      7.6387                 7.8982                 4.2692
 Frc consts  --      0.0276                 0.0337                 0.0247
 IR Inten    --      1.4934                 3.6155                11.8301

                     13                     14                     15
                      A                      A                      A
 Frequencies --    113.7619               122.2888               137.2570
 Red. masses --      4.3154                11.3353                12.2324
 Frc consts  --      0.0329                 0.0999                 0.1358
 IR Inten    --      3.4703                 0.8751                 7.4266

                     16                     17                     18
                      A                      A                      A
 Frequencies --    149.3687               157.4936               169.6034
 Red. masses --      3.7913                 7.4837                 4.3508
 Frc consts  --      0.0498                 0.1094                 0.0737
 IR Inten    --     18.5337                 5.4683                 1.1251

                     19                     20                     21
                      A                      A                      A
 Frequencies --    190.4656               194.2763               232.5877
 Red. masses --      3.5310                 3.5236                 5.2595
 Frc consts  --      0.0755                 0.0784                 0.1676
 IR Inten    --      2.1097                 2.4853                 3.3306

                     22                     23                     24
                      A                      A                      A
 Frequencies --    235.3821               254.3668               266.4677
 Red. masses --      3.7733                 1.7163                 4.1157
 Frc consts  --      0.1232                 0.0654                 0.1722
 IR Inten    --     26.7407                 3.5093                35.9901

                     25                     26                     27
                      A                      A                      A
 Frequencies --    270.7644               299.3804               302.8930
 Red. masses --      5.7221                 4.3390                 3.9095
 Frc consts  --      0.2472                 0.2291                 0.2113
 IR Inten    --     14.8489                10.2039                51.1110

                     28                     29                     30
                      A                      A                      A
 Frequencies --    328.2317               336.2169               347.2908
 Red. masses --      6.5760                 4.5303                 3.2944
 Frc consts  --      0.4174                 0.3017                 0.2341
 IR Inten    --     14.0530                15.8592                14.7676

                     31                     32                     33
                      A                      A                      A
 Frequencies --    358.6441               370.4324               393.4007
 Red. masses --      4.2201                 7.9091                33.9410
 Frc consts  --      0.3198                 0.6394                 3.0949
 IR Inten    --     18.0357                47.0193                98.4284

                     34                     35                     36
                      A                      A                      A
 Frequencies --    411.1696               413.3658               425.6318
 Red. masses --      3.1815                 3.0278                 4.1045
 Frc consts  --      0.3169                 0.3048                 0.4381
 IR Inten    --      5.1865                 1.1362                10.3922

                     37                     38                     39
                      A                      A                      A
 Frequencies --    450.7860               484.5515               505.7931
 Red. masses --      1.2051                 2.3702                 3.1558
 Frc consts  --      0.1443                 0.3279                 0.4757
 IR Inten    --      3.1328                 2.9525                 3.0037

                     40                     41                     42
                      A                      A                      A
 Frequencies --    546.4239               595.0205               629.6329
 Red. masses --      2.9491                 4.0879                 6.2376
 Frc consts  --      0.5188                 0.8527                 1.4569
 IR Inten    --      4.1758                37.1089                 3.4520

                     43                     44                     45
                      A                      A                      A
 Frequencies --    638.2178               664.1202               681.0749
 Red. masses --      2.3417                 4.2504                 5.5102
 Frc consts  --      0.5620                 1.1045                 1.5059
 IR Inten    --     17.9918                97.3016                 7.4706

                     46                     47                     48
                      A                      A                      A
 Frequencies --    708.2588               750.7241               762.0441
 Red. masses --      1.6559                 2.5156                 2.0591
 Frc consts  --      0.4894                 0.8353                 0.7045
 IR Inten    --     45.1166                11.4815                44.6572

                     49                     50                     51
                      A                      A                      A
 Frequencies --    781.2269               785.1860               808.3697
 Red. masses --      2.4848                 3.3100                 1.1639
 Frc consts  --      0.8935                 1.2023                 0.4481
 IR Inten    --     10.7273                18.4878                 0.5772

                     52                     53                     54
                      A                      A                      A
 Frequencies --    830.4597               849.9652               860.5130
 Red. masses --      2.2902                 1.2711                 3.7999
 Frc consts  --      0.9306                 0.5410                 1.6578
 IR Inten    --     14.1639                 1.3105                22.3737

                     55                     56                     57
                      A                      A                      A
 Frequencies --    877.7133               906.7797               931.2000
 Red. masses --      2.7595                 2.1845                 1.5917
 Frc consts  --      1.2525                 1.0583                 0.8132
 IR Inten    --     52.6240                 3.0162                 1.0904

                     58                     59                     60
                      A                      A                      A
 Frequencies --    938.2134               956.7659               983.9864
 Red. masses --      2.9611                 3.0735                 1.3636
 Frc consts  --      1.5357                 1.6577                 0.7779
 IR Inten    --      9.3462                 5.7195                 0.8201

                     61                     62                     63
                      A                      A                      A
 Frequencies --    984.4344              1000.3585              1004.3900
 Red. masses --      2.0203                 1.8498                 1.4030
 Frc consts  --      1.1536                 1.0907                 0.8339
 IR Inten    --     23.9781                 3.0157                 1.1597

                     64                     65                     66
                      A                      A                      A
 Frequencies --   1008.2073              1014.8755              1019.5651
 Red. masses --      2.8010                 1.9594                 1.6977
 Frc consts  --      1.6775                 1.1891                 1.0398
 IR Inten    --      4.4316                 4.4868                 4.1533

                     67                     68                     69
                      A                      A                      A
 Frequencies --   1025.5630              1048.0454              1051.0570
 Red. masses --      2.7577                 2.7556                 2.0931
 Frc consts  --      1.7089                 1.7833                 1.3624
 IR Inten    --     50.0550                19.0350                 3.2666

                     70                     71                     72
                      A                      A                      A
 Frequencies --   1076.1764              1094.9718              1104.0815
 Red. masses --      2.6239                 1.8382                 1.5804
 Frc consts  --      1.7905                 1.2985                 1.1351
 IR Inten    --      0.3452                27.4276                13.8210

                     73                     74                     75
                      A                      A                      A
 Frequencies --   1122.3483              1133.8855              1168.3536
 Red. masses --      2.1909                 2.2171                 1.5316
 Frc consts  --      1.6260                 1.6795                 1.2318
 IR Inten    --      8.4882                 4.5919                 2.0571

                     76                     77                     78
                      A                      A                      A
 Frequencies --   1172.2027              1173.7510              1189.3640
 Red. masses --      1.3728                 1.1392                 2.0499
 Frc consts  --      1.1114                 0.9247                 1.7085
 IR Inten    --     13.0852                 3.8544                 4.4915

                     79                     80                     81
                      A                      A                      A
 Frequencies --   1197.3897              1204.0679              1206.3416
 Red. masses --      1.1901                 1.5128                 1.4281
 Frc consts  --      1.0053                 1.2922                 1.2245
 IR Inten    --      1.7298               129.3067               218.2362

                     82                     83                     84
                      A                      A                      A
 Frequencies --   1233.9254              1264.1267              1277.6060
 Red. masses --      1.9286                 2.4883                 1.6726
 Frc consts  --      1.7301                 2.3428                 1.6085
 IR Inten    --    153.7533               198.1609                81.6373

                     85                     86                     87
                      A                      A                      A
 Frequencies --   1287.1665              1307.7690              1313.5830
 Red. masses --      1.0989                 1.4630                 1.4595
 Frc consts  --      1.0727                 1.4742                 1.4838
 IR Inten    --      2.5078               149.3880                 4.9179

                     88                     89                     90
                      A                      A                      A
 Frequencies --   1325.4440              1330.5826              1346.7339
 Red. masses --      1.2596                 1.4912                 1.4179
 Frc consts  --      1.3038                 1.5555                 1.5152
 IR Inten    --      7.3537                 1.6126                64.3338

                     91                     92                     93
                      A                      A                      A
 Frequencies --   1358.5354              1361.9071              1370.8707
 Red. masses --      1.5296                 2.9310                 1.2957
 Frc consts  --      1.6633                 3.2030                 1.4347
 IR Inten    --     63.9726                38.2307                46.8508

                     94                     95                     96
                      A                      A                      A
 Frequencies --   1377.1522              1399.6935              1423.5711
 Red. masses --      1.3340                 1.5025                 1.7148
 Frc consts  --      1.4906                 1.7343                 2.0474
 IR Inten    --     33.1087               118.2725                52.5806

                     97                     98                     99
                      A                      A                      A
 Frequencies --   1436.3434              1457.5371              1471.0928
 Red. masses --      1.8004                 1.1786                 2.2606
 Frc consts  --      2.1884                 1.4752                 2.8824
 IR Inten    --      0.7454                11.1835                12.4409

                    100                    101                    102
                      A                      A                      A
 Frequencies --   1474.7156              1475.6062              1486.1856
 Red. masses --      1.1551                 1.0402                 1.0545
 Frc consts  --      1.4801                 1.3345                 1.3723
 IR Inten    --     11.5098                 5.6935                 2.0539

                    103                    104                    105
                      A                      A                      A
 Frequencies --   1490.2374              1504.3364              1505.8280
 Red. masses --      1.1001                 1.1113                 1.0896
 Frc consts  --      1.4395                 1.4818                 1.4557
 IR Inten    --      6.6418                 5.3585                 5.3402

                    106                    107                    108
                      A                      A                      A
 Frequencies --   1517.2437              1521.5522              1626.0993
 Red. masses --      2.1823                 1.6525                 5.9390
 Frc consts  --      2.9599                 2.2540                 9.2525
 IR Inten    --      1.9790               112.8359                 1.0939

                    109                    110                    111
                      A                      A                      A
 Frequencies --   1645.9098              1734.7830              2153.4579
 Red. masses --      5.8470                10.9258                 1.0849
 Frc consts  --      9.3325                19.3729                 2.9642
 IR Inten    --      0.2184               268.1487              1783.2566

                    112                    113                    114
                      A                      A                      A
 Frequencies --   3012.4912              3040.8445              3056.5430
 Red. masses --      1.0397                 1.0351                 1.0670
 Frc consts  --      5.5591                 5.6390                 5.8734
 IR Inten    --     16.2341                17.2525                27.3060

                    115                    116                    117
                      A                      A                      A
 Frequencies --   3067.9362              3071.4018              3073.2234
 Red. masses --      1.0955                 1.0588                 1.0611
 Frc consts  --      6.0750                 5.8849                 5.9045
 IR Inten    --     12.8336                 6.0635                23.3898

                    118                    119                    120
                      A                      A                      A
 Frequencies --   3091.8539              3092.5355              3101.2143
 Red. masses --      1.0843                 1.0607                 1.0848
 Frc consts  --      6.1073                 5.9770                 6.1468
 IR Inten    --      9.5806                 1.7593                 7.9104

                    121                    122                    123
                      A                      A                      A
 Frequencies --   3110.6079              3112.6952              3120.3850
 Red. masses --      1.1056                 1.0979                 1.1011
 Frc consts  --      6.3029                 6.2673                 6.3165
 IR Inten    --      1.5716                16.7973                16.7381

                    124                    125                    126
                      A                      A                      A
 Frequencies --   3132.0712              3134.5004              3153.6395
 Red. masses --      1.1055                 1.1078                 1.1010
 Frc consts  --      6.3894                 6.4129                 6.4518
 IR Inten    --      6.4705                24.3045                 4.5998

                    127                    128                    129
                      A                      A                      A
 Frequencies --   3155.8773              3173.5211              3184.2279
 Red. masses --      1.0870                 1.0874                 1.0926
 Frc consts  --      6.3786                 6.4523                 6.5269
 IR Inten    --      8.7477                 2.1268                14.3845

                    130                    131                    132
                      A                      A                      A
 Frequencies --   3195.4792              3195.8200              3217.1805
 Red. masses --      1.1061                 1.0977                 1.0930
 Frc consts  --      6.6547                 6.6051                 6.6655
 IR Inten    --      2.1511                14.3207                 7.3429

 - Thermochemistry -
 -------------------
 Temperature   298.150 Kelvin.  Pressure   1.00000 Atm.
 Atom     1 has atomic number  6 and mass  12.00000

 Molecular mass:   434.99839 amu.
 Principal axes and moments of inertia in atomic units:
                           1         2         3
     Eigenvalues --  9234.02729********************
           X            0.98702   0.15915   0.02149
           Y           -0.15906   0.98725  -0.00579
           Z           -0.02214   0.00230   0.99975
 This molecule is an asymmetric top.
 Rotational symmetry number  1.
 Warning -- assumption of classical behavior for rotation
           may cause significant error
 Rotational temperatures (Kelvin)      0.00938     0.00810     0.00656
 Rotational constants (GHZ):           0.19544     0.16888     0.13665
    1 imaginary frequencies ignored.
 Zero-point vibrational energy     939245.8 (Joules/Mol)
                                  224.48514 (Kcal/Mol)
 Warning -- explicit consideration of  40 degrees of freedom as
           vibrations may cause significant error
 Vibrational temperatures:     15.07    37.33    64.59    77.95    78.16
          (Kelvin)             88.59    94.24    99.96   112.65   122.43
                              142.51   163.68   175.95   197.48   214.91
                              226.60   244.02   274.04   279.52   334.64
                              338.66   365.98   383.39   389.57   430.74
                              435.80   472.25   483.74   499.67   516.01
                              532.97   566.02   591.58   594.74   612.39
                              648.58   697.16   727.72   786.18   856.10
                              905.90   918.25   955.52   979.91  1019.03
                             1080.12  1096.41  1124.01  1129.71  1163.06
                             1194.85  1222.91  1238.09  1262.83  1304.65
                             1339.79  1349.88  1376.57  1415.74  1416.38
                             1439.29  1445.09  1450.59  1460.18  1466.93
                             1475.56  1507.90  1512.24  1548.38  1575.42
                             1588.53  1614.81  1631.41  1681.00  1686.54
                             1688.77  1711.23  1722.78  1732.39  1735.66
                             1775.34  1818.80  1838.19  1851.95  1881.59
                             1889.95  1907.02  1914.41  1937.65  1954.63
                             1959.48  1972.38  1981.41  2013.85  2048.20
                             2066.58  2097.07  2116.57  2121.79  2123.07
                             2138.29  2144.12  2164.40  2166.55  2182.98
                             2189.17  2339.59  2368.10  2495.97  3098.35
                             4334.30  4375.10  4397.68  4414.08  4419.06
                             4421.68  4448.49  4449.47  4461.96  4475.47
                             4478.47  4489.54  4506.35  4509.85  4537.38
                             4540.60  4565.99  4581.39  4597.58  4598.07
                             4628.81

 Zero-point correction=                           0.357740 (Hartree/Particle)
 Thermal correction to Energy=                    0.384334
 Thermal correction to Enthalpy=                  0.385278
 Thermal correction to Gibbs Free Energy=         0.296404
 Sum of electronic and zero-point Energies=          -3531.167721
 Sum of electronic and thermal Energies=             -3531.141126
 Sum of electronic and thermal Enthalpies=           -3531.140182
 Sum of electronic and thermal Free Energies=        -3531.229057

                     E (Thermal)             CV                S
                      KCal/Mol        Cal/Mol-Kelvin    Cal/Mol-Kelvin
 Total                  241.173             96.257            187.052
 Electronic               0.000              0.000              3.561
 Translational            0.889              2.981             44.100
 Rotational               0.889              2.981             35.520
 Vibrational            239.396             90.296            103.871
 Vibration     1          0.593              1.987              7.919
 Vibration     2          0.593              1.985              6.117
 Vibration     3          0.595              1.979              5.031
 Vibration     4          0.596              1.976              4.659
 Vibration     5          0.596              1.976              4.653
 Vibration     6          0.597              1.973              4.406
 Vibration     7          0.597              1.971              4.284
 Vibration     8          0.598              1.969              4.168
 Vibration     9          0.600              1.964              3.933
 Vibration    10          0.601              1.960              3.770
 Vibration    11          0.604              1.950              3.473
 Vibration    12          0.607              1.938              3.204
 Vibration    13          0.610              1.931              3.064
 Vibration    14          0.614              1.916              2.842
 Vibration    15          0.618              1.903              2.680
 Vibration    16          0.621              1.894              2.580
 Vibration    17          0.625              1.880              2.440
 Vibration    18          0.634              1.853              2.223
 Vibration    19          0.635              1.848              2.187
 Vibration    20          0.653              1.791              1.859
 Vibration    21          0.655              1.787              1.838
 Vibration    22          0.665              1.755              1.700
 Vibration    23          0.672              1.735              1.619
 Vibration    24          0.674              1.727              1.591
 Vibration    25          0.692              1.675              1.420
 Vibration    26          0.694              1.668              1.401
 Vibration    27          0.711              1.619              1.269
 Vibration    28          0.717              1.603              1.230
 Vibration    29          0.725              1.581              1.178
 Vibration    30          0.733              1.557              1.128
 Vibration    31          0.742              1.533              1.078
 Vibration    32          0.761              1.484              0.987
 Vibration    33          0.775              1.446              0.922
 Vibration    34          0.777              1.441              0.915
 Vibration    35          0.787              1.414              0.873
 Vibration    36          0.810              1.359              0.793
 Vibration    37          0.841              1.284              0.698
 Vibration    38          0.861              1.237              0.644
 Vibration    39          0.902              1.148              0.552
 Vibration    40          0.953              1.042              0.458

 Optimization completed.
    -- Stationary point found.
 Normal termination of Gaussian 16 at Tue Jun 22 03:10:54 2021.
