 Gaussian 16, Revision A.03,
 Gaussian 16:  ES64L-G16RevA.03 25-Dec-2016

 ----------------------------------------------------------------------
 #p opt freq=noraman b3lyp jul-cc-pvdz pop=none empiricaldispersion=gd3
 bj
 ----------------------------------------------------------------------

 -----
 title
 -----
 Symbolic Z-matrix:
 Charge =  0 Multiplicity = 1

 SCF Done:  E(RB3LYP) =  -886.912696823     A.U. after   14 cycles
 Optimization completed.
    -- Stationary point found.
 Normal termination of Gaussian 16 at Wed Jun  2 17:01:53 2021.

 ----------------------------------------------------------------------
 #P Geom=AllCheck Guess=TCheck SCRF=Check GenChk RB3LYP/Jul-CC-pVDZ Fre
 q
 ----------------------------------------------------------------------

 Structure from the checkpoint file:  "/scratch/kwaneu.2863091.bmbhpcps002/Gau-26354.chk"
 -----
 title
 -----
 Charge =  0 Multiplicity = 1

                         Standard orientation:
 ---------------------------------------------------------------------
 Center     Atomic      Atomic             Coordinates (Angstroms)
 Number     Number       Type             X           Y           Z
 ---------------------------------------------------------------------
      1          6           0       -2.692328   -0.886353   -1.049069
      2          6           0       -1.883430   -1.175683    0.062616
      3          6           0       -2.417508   -1.931961    1.120451
      4          6           0       -3.732408   -2.387200    1.070624
      5          6           0       -4.532648   -2.094210   -0.040995
      6          6           0       -4.010672   -1.344931   -1.098601
      7          6           0       -0.467171   -0.707720    0.174222
      8          6           0        0.075414    0.240516   -0.908205
      9          6           0        1.582938    0.502703   -0.750731
     10          6           0        2.438293   -0.708099   -1.160741
     11          6           0        3.910955   -0.448293   -0.980019
     12          6           0        4.626951   -0.690320    0.130912
     13          6           0        6.097904   -0.368655    0.198051
     14          8           0        0.238710   -1.061398    1.103899
     15          6           0        4.048904   -1.286814    1.388562
     16          1           0       -1.777838   -2.148277    1.975532
     17          1           0       -4.138199   -2.971299    1.897505
     18          1           0       -5.562902   -2.450957   -0.081687
     19          1           0       -4.630272   -1.115948   -1.966152
     20          1           0       -2.307743   -0.301445   -1.882613
     21          1           0       -0.114737   -0.202872   -1.894585
     22          6           0       -0.689399    1.555313   -0.899042
     23          1           0        1.857619    1.368621   -1.371299
     24          1           0        1.792104    0.766855    0.292720
     25          1           0        2.124036   -1.581625   -0.576678
     26          1           0        2.236091   -0.941650   -2.218281
     27          1           0        4.427712    0.011478   -1.828793
     28          1           0        4.240505   -0.620262    2.245176
     29          1           0        2.968382   -1.456746    1.332391
     30          1           0        4.543925   -2.243165    1.624532
     31          1           0        6.306984    0.348243    1.009043
     32          1           0        6.686996   -1.273397    0.421614
     33          1           0        6.464880    0.058445   -0.744804
     34          8           0       -0.782958    2.050582    0.348448
     35          8           0       -1.134782    2.106919   -1.883499
     36          6           0       -1.477149    3.317091    0.487887
     37          6           0       -1.499910    3.658166    1.962713
     38          1           0       -0.944784    4.070343   -0.108333
     39          1           0       -2.485762    3.204127    0.068280
     40          1           0       -2.020238    4.615247    2.109788
     41          1           0       -2.027274    2.882785    2.534907
     42          1           0       -0.479671    3.751365    2.359152
 ---------------------------------------------------------------------

 SCF Done:  E(RB3LYP) =  -886.912696823     A.U. after    2 cycles

 Isotropic polarizability for W=    0.000000      220.59 Bohr**3.
 End of Minotr F.D. properties file   721 does not exist.

                      1                      2                      3
                      A                      A                      A
 Frequencies --     16.3437                23.9181                29.1137
 Red. masses --      4.1620                 3.6484                 3.5898
 Frc consts  --      0.0007                 0.0012                 0.0018
 IR Inten    --      0.5699                 0.2383                 0.5002

                      4                      5                      6
                      A                      A                      A
 Frequencies --     32.1050                44.1437                65.6555
 Red. masses --      3.7766                 3.7883                 2.4191
 Frc consts  --      0.0023                 0.0043                 0.0061
 IR Inten    --      0.5565                 0.0988                 0.3422

                      7                      8                      9
                      A                      A                      A
 Frequencies --     70.6749                77.8478               100.7949
 Red. masses --      5.9213                 3.3567                 3.6922
 Frc consts  --      0.0174                 0.0120                 0.0221
 IR Inten    --      1.2218                 0.6664                 0.3187

                     10                     11                     12
                      A                      A                      A
 Frequencies --    118.7079               138.1680               143.5144
 Red. masses --      3.6667                 2.1067                 1.2991
 Frc consts  --      0.0304                 0.0237                 0.0158
 IR Inten    --      1.2383                 0.3838                 0.5218

                     13                     14                     15
                      A                      A                      A
 Frequencies --    163.6635               189.9830               191.1831
 Red. masses --      4.5661                 1.3711                 3.6744
 Frc consts  --      0.0721                 0.0292                 0.0791
 IR Inten    --      0.8272                 2.7031                 3.8658

                     16                     17                     18
                      A                      A                      A
 Frequencies --    218.1933               252.4240               263.7412
 Red. masses --      1.7136                 2.4991                 1.9274
 Frc consts  --      0.0481                 0.0938                 0.0790
 IR Inten    --      1.3541                 1.8674                 3.5788

                     19                     20                     21
                      A                      A                      A
 Frequencies --    294.8842               314.9106               338.8444
 Red. masses --      2.6630                 3.6036                 3.3744
 Frc consts  --      0.1364                 0.2106                 0.2283
 IR Inten    --      5.3086                 3.9886                 0.4468

                     22                     23                     24
                      A                      A                      A
 Frequencies --    366.1157               385.1301               404.6686
 Red. masses --      4.8465                 2.7350                 3.3619
 Frc consts  --      0.3827                 0.2390                 0.3244
 IR Inten    --      7.4083                 3.4682                 0.6642

                     25                     26                     27
                      A                      A                      A
 Frequencies --    410.7163               427.2475               451.1988
 Red. masses --      2.8741                 3.5306                 3.5147
 Frc consts  --      0.2856                 0.3797                 0.4216
 IR Inten    --      0.1103                 6.3328                 4.5695

                     28                     29                     30
                      A                      A                      A
 Frequencies --    481.1867               499.1959               566.8829
 Red. masses --      2.5978                 5.5352                 3.0393
 Frc consts  --      0.3544                 0.8127                 0.5754
 IR Inten    --      3.9030                 4.4620                 7.9320

                     31                     32                     33
                      A                      A                      A
 Frequencies --    602.4244               627.0425               677.7801
 Red. masses --      4.3077                 6.3778                 3.4330
 Frc consts  --      0.9211                 1.4774                 0.9292
 IR Inten    --      7.6974                 0.6151                12.2905

                     34                     35                     36
                      A                      A                      A
 Frequencies --    698.3453               729.4282               733.5619
 Red. masses --      1.7258                 2.0631                 2.6320
 Frc consts  --      0.4959                 0.6468                 0.8345
 IR Inten    --     43.5886                 3.2064                16.9436

                     37                     38                     39
                      A                      A                      A
 Frequencies --    755.3604               789.8844               806.6190
 Red. masses --      3.0475                 3.1582                 1.4360
 Frc consts  --      1.0245                 1.1609                 0.5505
 IR Inten    --      5.0188                 2.8523                 4.7013

                     40                     41                     42
                      A                      A                      A
 Frequencies --    809.2392               839.7989               849.0637
 Red. masses --      1.7807                 1.5562                 1.6447
 Frc consts  --      0.6870                 0.6466                 0.6986
 IR Inten    --      3.8775                16.9055                 3.1840

                     43                     44                     45
                      A                      A                      A
 Frequencies --    852.8211               882.7687               946.0293
 Red. masses --      1.6764                 2.7661                 1.5695
 Frc consts  --      0.7184                 1.2700                 0.8276
 IR Inten    --      5.0403                 7.8390                 2.4108

                     46                     47                     48
                      A                      A                      A
 Frequencies --    958.0749               967.0069               975.5522
 Red. masses --      2.5131                 1.6017                 3.7448
 Frc consts  --      1.3591                 0.8824                 2.0998
 IR Inten    --     21.1797                 7.8765                28.3220

                     49                     50                     51
                      A                      A                      A
 Frequencies --    990.4093              1000.7250              1004.2484
 Red. masses --      1.3886                 2.4509                 1.3266
 Frc consts  --      0.8025                 1.4461                 0.7883
 IR Inten    --      1.4355                 4.5964                 4.7414

                     52                     53                     54
                      A                      A                      A
 Frequencies --   1005.2315              1006.3781              1043.4965
 Red. masses --      1.9743                 1.7889                 2.8457
 Frc consts  --      1.1754                 1.0675                 1.8256
 IR Inten    --      0.8741                 5.3409                 4.0703

                     55                     56                     57
                      A                      A                      A
 Frequencies --   1049.8168              1059.2293              1065.4037
 Red. masses --      2.1412                 1.9085                 3.8302
 Frc consts  --      1.3904                 1.2616                 2.5615
 IR Inten    --      2.5743                 5.7703               106.8573

                     58                     59                     60
                      A                      A                      A
 Frequencies --   1094.6652              1099.8711              1106.5917
 Red. masses --      2.3429                 1.6977                 1.6459
 Frc consts  --      1.6541                 1.2101                 1.1875
 IR Inten    --      3.9846                 0.0525                 3.9688

                     61                     62                     63
                      A                      A                      A
 Frequencies --   1129.5285              1133.0917              1167.5045
 Red. masses --      1.8216                 2.1625                 1.5184
 Frc consts  --      1.3693                 1.6359                 1.2195
 IR Inten    --     15.9166                 3.2825                 1.3261

                     64                     65                     66
                      A                      A                      A
 Frequencies --   1170.6533              1174.1616              1199.6422
 Red. masses --      1.5526                 1.1053                 1.1538
 Frc consts  --      1.2536                 0.8978                 0.9783
 IR Inten    --      2.3075                 2.6245                27.8067

                     67                     68                     69
                      A                      A                      A
 Frequencies --   1220.6550              1234.8797              1256.0193
 Red. masses --      2.0060                 2.3661                 2.0732
 Frc consts  --      1.7611                 2.1258                 1.9270
 IR Inten    --    173.3478                90.1596                80.8993

                     70                     71                     72
                      A                      A                      A
 Frequencies --   1279.5196              1282.9070              1302.2441
 Red. masses --      1.9251                 1.0992                 1.7949
 Frc consts  --      1.8569                 1.0659                 1.7934
 IR Inten    --    129.2468                 1.6610               130.4376

                     73                     74                     75
                      A                      A                      A
 Frequencies --   1317.7730              1332.5056              1355.3345
 Red. masses --      1.2265                 1.4289                 1.4718
 Frc consts  --      1.2548                 1.4949                 1.5929
 IR Inten    --      9.4578                 0.7870                45.0925

                     76                     77                     78
                      A                      A                      A
 Frequencies --   1363.0058              1366.5286              1374.4826
 Red. masses --      1.5044                 3.6525                 1.4338
 Frc consts  --      1.6467                 4.0186                 1.5959
 IR Inten    --      4.4725                 4.5783                 3.6807

                     79                     80                     81
                      A                      A                      A
 Frequencies --   1380.1325              1400.6806              1411.6670
 Red. masses --      1.3486                 1.3884                 1.2993
 Frc consts  --      1.5135                 1.6049                 1.5255
 IR Inten    --      6.5848                 4.8200                 3.8778

                     82                     83                     84
                      A                      A                      A
 Frequencies --   1415.0713              1465.3478              1468.9846
 Red. masses --      1.4368                 1.0495                 1.0708
 Frc consts  --      1.6951                 1.3278                 1.3614
 IR Inten    --      9.9377                 0.2607                 7.1595

                     85                     86                     87
                      A                      A                      A
 Frequencies --   1471.4406              1474.8765              1475.5585
 Red. masses --      2.3321                 1.0410                 1.0636
 Frc consts  --      2.9750                 1.3342                 1.3644
 IR Inten    --     17.0715                 5.0049                 5.3781

                     88                     89                     90
                      A                      A                      A
 Frequencies --   1484.4413              1486.3775              1487.0745
 Red. masses --      1.0674                 1.0510                 1.0634
 Frc consts  --      1.3858                 1.3681                 1.3855
 IR Inten    --     10.2649                 2.9380                 4.8590

                     91                     92                     93
                      A                      A                      A
 Frequencies --   1501.3683              1507.5912              1518.4953
 Red. masses --      1.0814                 1.0846                 2.2475
 Frc consts  --      1.4362                 1.4524                 3.0533
 IR Inten    --      2.2186                 5.3242                 1.4586

                     94                     95                     96
                      A                      A                      A
 Frequencies --   1623.5347              1643.9800              1734.9712
 Red. masses --      5.7260                 5.7446                 8.1756
 Frc consts  --      8.8925                 9.1476                14.4995
 IR Inten    --     13.7057                28.7198                77.3770

                     97                     98                     99
                      A                      A                      A
 Frequencies --   1738.2023              1772.7810              3006.6262
 Red. masses --      9.2307                11.6212                 1.0384
 Frc consts  --     16.4318                21.5185                 5.5308
 IR Inten    --    229.0212               151.3465                26.3848

                    100                    101                    102
                      A                      A                      A
 Frequencies --   3013.5095              3025.5114              3040.5463
 Red. masses --      1.0408                 1.0683                 1.0349
 Frc consts  --      5.5689                 5.7617                 5.6373
 IR Inten    --     69.0469                29.0659                15.1202

                    103                    104                    105
                      A                      A                      A
 Frequencies --   3044.0971              3056.2755              3059.0087
 Red. masses --      1.0666                 1.0989                 1.0983
 Frc consts  --      5.8233                 6.0479                 6.0551
 IR Inten    --     19.0608                 0.3545                45.4608

                    106                    107                    108
                      A                      A                      A
 Frequencies --   3059.3842              3074.1016              3096.6542
 Red. masses --      1.0581                 1.0831                 1.0901
 Frc consts  --      5.8353                 6.0305                 6.1587
 IR Inten    --     15.3010                 6.8231                 6.3070

                    109                    110                    111
                      A                      A                      A
 Frequencies --   3101.9163              3108.7286              3116.0727
 Red. masses --      1.1071                 1.0998                 1.0986
 Frc consts  --      6.2764                 6.2620                 6.2848
 IR Inten    --      2.1679                17.6943                 6.5104

                    112                    113                    114
                      A                      A                      A
 Frequencies --   3118.3638              3126.0698              3128.7423
 Red. masses --      1.1013                 1.0903                 1.1056
 Frc consts  --      6.3099                 6.2777                 6.3768
 IR Inten    --     22.9744                45.1368                33.0517

                    115                    116                    117
                      A                      A                      A
 Frequencies --   3138.7805              3170.3135              3182.5736
 Red. masses --      1.0968                 1.0851                 1.0898
 Frc consts  --      6.3663                 6.4255                 6.5037
 IR Inten    --      8.4493                 0.2378                 9.5878

                    118                    119                    120
                      A                      A                      A
 Frequencies --   3192.8111              3205.1896              3209.2897
 Red. masses --      1.0946                 1.0941                 1.0942
 Frc consts  --      6.5746                 6.6224                 6.6399
 IR Inten    --     14.0357                 7.3736                 2.3817

 - Thermochemistry -
 -------------------
 Temperature   298.150 Kelvin.  Pressure   1.00000 Atm.
 Atom     1 has atomic number  6 and mass  12.00000

 Molecular mass:   274.15689 amu.
 Principal axes and moments of inertia in atomic units:
                           1         2         3
     Eigenvalues --  4153.355129668.46058**********
           X            0.99994  -0.01127   0.00046
           Y            0.01126   0.99962   0.02511
           Z           -0.00075  -0.02510   0.99968
 This molecule is an asymmetric top.
 Rotational symmetry number  1.
 Warning -- assumption of classical behavior for rotation
           may cause significant error
 Rotational temperatures (Kelvin)      0.02085     0.00896     0.00750
 Rotational constants (GHZ):           0.43453     0.18666     0.15633
 Zero-point vibrational energy     930130.1 (Joules/Mol)
                                  222.30642 (Kcal/Mol)
 Warning -- explicit consideration of  31 degrees of freedom as
           vibrations may cause significant error
 Vibrational temperatures:     23.51    34.41    41.89    46.19    63.51
          (Kelvin)             94.46   101.69   112.01   145.02   170.79
                              198.79   206.49   235.48   273.34   275.07
                              313.93   363.18   379.46   424.27   453.09
                              487.52   526.76   554.12   582.23   590.93
                              614.71   649.17   692.32   718.23   815.62
                              866.75   902.17   975.17  1004.76  1049.48
                             1055.43  1086.80  1136.47  1160.54  1164.31
                             1208.28  1221.61  1227.02  1270.11  1361.13
                             1378.46  1391.31  1403.60  1424.98  1439.82
                             1444.89  1446.30  1447.95  1501.36  1510.45
                             1523.99  1532.88  1574.98  1582.47  1592.14
                             1625.14  1630.27  1679.78  1684.31  1689.36
                             1726.02  1756.25  1776.72  1807.13  1840.94
                             1845.82  1873.64  1895.98  1917.18  1950.02
                             1961.06  1966.13  1977.57  1985.70  2015.27
                             2031.07  2035.97  2108.31  2113.54  2117.07
                             2122.02  2123.00  2135.78  2138.57  2139.57
                             2160.13  2169.09  2184.78  2335.90  2365.32
                             2496.24  2500.89  2550.64  4325.86  4335.77
                             4353.04  4374.67  4379.78  4397.30  4401.23
                             4401.77  4422.95  4455.39  4462.97  4472.77
                             4483.33  4486.63  4497.72  4501.56  4516.01
                             4561.37  4579.01  4593.74  4611.55  4617.45

 Zero-point correction=                           0.354268 (Hartree/Particle)
 Thermal correction to Energy=                    0.375758
 Thermal correction to Enthalpy=                  0.376702
 Thermal correction to Gibbs Free Energy=         0.300070
 Sum of electronic and zero-point Energies=           -886.558429
 Sum of electronic and thermal Energies=              -886.536939
 Sum of electronic and thermal Enthalpies=            -886.535994
 Sum of electronic and thermal Free Energies=         -886.612627

                     E (Thermal)             CV                S
                      KCal/Mol        Cal/Mol-Kelvin    Cal/Mol-Kelvin
 Total                  235.792             78.166            161.286
 Electronic               0.000              0.000              0.000
 Translational            0.889              2.981             42.724
 Rotational               0.889              2.981             34.493
 Vibrational            234.014             72.205             84.069
 Vibration     1          0.593              1.986              7.035
 Vibration     2          0.593              1.985              6.279
 Vibration     3          0.593              1.984              5.889
 Vibration     4          0.594              1.983              5.695
 Vibration     5          0.595              1.980              5.064
 Vibration     6          0.597              1.971              4.280
 Vibration     7          0.598              1.968              4.134
 Vibration     8          0.599              1.964              3.944
 Vibration     9          0.604              1.948              3.439
 Vibration    10          0.609              1.934              3.121
 Vibration    11          0.614              1.915              2.829
 Vibration    12          0.616              1.910              2.756
 Vibration    13          0.623              1.887              2.507
 Vibration    14          0.633              1.854              2.228
 Vibration    15          0.634              1.852              2.216
 Vibration    16          0.646              1.813              1.974
 Vibration    17          0.664              1.759              1.714
 Vibration    18          0.670              1.739              1.637
 Vibration    19          0.689              1.683              1.446
 Vibration    20          0.702              1.645              1.336
 Vibration    21          0.719              1.598              1.218
 Vibration    22          0.739              1.542              1.096
 Vibration    23          0.754              1.502              1.019
 Vibration    24          0.770              1.460              0.946
 Vibration    25          0.775              1.447              0.924
 Vibration    26          0.789              1.411              0.868
 Vibration    27          0.810              1.358              0.792
 Vibration    28          0.837              1.292              0.707
 Vibration    29          0.855              1.252              0.660
 Vibration    30          0.923              1.103              0.510
 Vibration    31          0.961              1.027              0.446

 Optimization completed on the basis of negligible forces.
    -- Stationary point found.
 Normal termination of Gaussian 16 at Wed Jun  2 18:00:28 2021.
