 Gaussian 16, Revision A.03,
 Gaussian 16:  ES64L-G16RevA.03 25-Dec-2016

 ----------------------------------------------------------------------
 #p opt=(ts,noeigentest,calcfc) freq=noraman b3lyp jul-cc-pvdz pop=none
  empiricaldispersion=gd3bj
 ----------------------------------------------------------------------

 -----
 title
 -----
 Symbolic Z-matrix:
 Charge =  0 Multiplicity = 6

 SCF Done:  E(UB3LYP) =  -3531.52379914     A.U. after   25 cycles
 Optimization completed.
    -- Stationary point found.
 Normal termination of Gaussian 16 at Wed Jun  2 22:49:12 2021.

 ----------------------------------------------------------------------
 #P Geom=AllCheck Guess=TCheck SCRF=Check GenChk UB3LYP/Jul-CC-pVDZ Fre
 q
 ----------------------------------------------------------------------

 Structure from the checkpoint file:  "/scratch/kwaneu.2863103.bmbhpcps002/Gau-39807.chk"
 -----
 title
 -----
 Charge =  0 Multiplicity = 6

                         Standard orientation:
 ---------------------------------------------------------------------
 Center     Atomic      Atomic             Coordinates (Angstroms)
 Number     Number       Type             X           Y           Z
 ---------------------------------------------------------------------
      1          6           0        2.136512    0.047023   -1.034148
      2          6           0        2.249666   -1.016493   -0.112607
      3          6           0        3.116610   -2.097069   -0.403264
      4          6           0        3.893748   -2.084208   -1.555390
      5          6           0        3.764371   -1.029244   -2.468084
      6          6           0        2.871731    0.017898   -2.214387
      7          6           0        1.431578   -1.086287    1.071351
      8          6           0        1.215301   -0.018556    2.105733
      9          6           0        0.183711   -0.600198    3.090427
     10          6           0        0.339529   -2.117404    2.925508
     11          6           0        0.705027   -2.263378    1.449359
     12          6           0       -0.686766   -2.031222    0.344781
     13          6           0       -0.322677   -2.792455   -0.923377
     14          8           0       -0.825872   -0.690810    0.132494
     15         26           0       -2.071154    0.435743   -0.687261
     16         17           0       -3.093454   -0.771039   -2.253418
     17          6           0       -1.894245   -2.637635    1.045374
     18         17           0       -0.816760    2.076630   -1.575301
     19         17           0       -3.500780    1.094712    0.862302
     20          1           0        3.202619   -2.923143    0.301763
     21          1           0        4.585745   -2.902248   -1.754756
     22          1           0        4.350815   -1.033355   -3.387767
     23          1           0        2.735280    0.814104   -2.945912
     24          1           0        1.401314    0.828461   -0.879750
     25          1           0        2.218732    0.011547    2.581031
     26          6           0        0.920970    1.439829    1.731126
     27          1           0        0.358581   -0.248373    4.112717
     28          1           0       -0.810329   -0.259847    2.782587
     29          1           0        1.173733   -2.498921    3.535378
     30          1           0       -0.552930   -2.680196    3.212395
     31          1           0        1.099730   -3.222738    1.110292
     32          1           0       -1.725441   -3.680116    1.344420
     33          1           0       -2.201792   -2.038742    1.907623
     34          1           0       -2.716778   -2.612485    0.315522
     35          1           0       -0.197592   -3.865208   -0.725652
     36          1           0       -1.152577   -2.651361   -1.628402
     37          1           0        0.581351   -2.398861   -1.397332
     38          8           0        1.952082    2.016666    1.100876
     39          8           0       -0.094555    1.997282    2.059793
     40          6           0        1.747593    3.409906    0.701522
     41          6           0        2.872024    3.776516   -0.241404
     42          1           0        0.762504    3.482230    0.228146
     43          1           0        1.748913    4.019612    1.614893
     44          1           0        2.768835    4.831585   -0.530767
     45          1           0        3.853134    3.640506    0.234088
     46          1           0        2.831701    3.165829   -1.153042
 ---------------------------------------------------------------------

 SCF Done:  E(UB3LYP) =  -3531.52379914     A.U. after    2 cycles

 Isotropic polarizability for W=    0.000000      303.35 Bohr**3.
 End of Minotr F.D. properties file   721 does not exist.

 ******    1 imaginary frequencies (negative Signs) ******

                      1                      2                      3
                      A                      A                      A
 Frequencies --   -301.9758                17.1960                25.9644
 Red. masses --      8.7083                 3.7032                 6.6951
 Frc consts  --      0.4679                 0.0006                 0.0027
 IR Inten    --    338.9325                 0.7428                 0.1411

                      4                      5                      6
                      A                      A                      A
 Frequencies --     26.1793                47.7275                52.3772
 Red. masses --     10.3580                 5.6934                 6.3474
 Frc consts  --      0.0042                 0.0076                 0.0103
 IR Inten    --      0.1852                 0.9382                 2.6040

                      7                      8                      9
                      A                      A                      A
 Frequencies --     62.2701                66.9779                75.3120
 Red. masses --      4.0815                 9.7931                 6.6122
 Frc consts  --      0.0093                 0.0259                 0.0221
 IR Inten    --      1.0829                 0.4316                 0.3869

                     10                     11                     12
                      A                      A                      A
 Frequencies --     77.7872                93.9098               103.4721
 Red. masses --      5.1214                 9.3130                 8.3740
 Frc consts  --      0.0183                 0.0484                 0.0528
 IR Inten    --      2.1382                 1.3586                 1.0371

                     13                     14                     15
                      A                      A                      A
 Frequencies --    111.3719               120.9268               134.9343
 Red. masses --     12.6826                 3.9326                 3.2886
 Frc consts  --      0.0927                 0.0339                 0.0353
 IR Inten    --     15.0108                 2.8333                 0.7553

                     16                     17                     18
                      A                      A                      A
 Frequencies --    136.0675               144.2677               167.0458
 Red. masses --      6.6938                 6.6283                 3.0181
 Frc consts  --      0.0730                 0.0813                 0.0496
 IR Inten    --      3.9444                 0.6947                 1.0834

                     19                     20                     21
                      A                      A                      A
 Frequencies --    178.1150               214.8733               225.2277
 Red. masses --      3.1396                 3.6495                 3.7480
 Frc consts  --      0.0587                 0.0993                 0.1120
 IR Inten    --      2.6033                12.2203                 2.7004

                     22                     23                     24
                      A                      A                      A
 Frequencies --    251.9159               253.6900               259.9422
 Red. masses --      1.2849                 3.1197                 1.8169
 Frc consts  --      0.0480                 0.1183                 0.0723
 IR Inten    --      8.5214                12.1546                 5.2160

                     25                     26                     27
                      A                      A                      A
 Frequencies --    267.8658               284.3265               317.1097
 Red. masses --      2.9909                 1.6305                 2.0668
 Frc consts  --      0.1264                 0.0777                 0.1225
 IR Inten    --      3.7315                 1.7132                 3.1378

                     28                     29                     30
                      A                      A                      A
 Frequencies --    326.0148               335.4778               344.8836
 Red. masses --      3.8757                10.7391                 2.5505
 Frc consts  --      0.2427                 0.7121                 0.1787
 IR Inten    --      9.5881                14.8414                 4.5618

                     31                     32                     33
                      A                      A                      A
 Frequencies --    367.2975               373.2967               381.7981
 Red. masses --      3.3180                16.5888                 3.4437
 Frc consts  --      0.2637                 1.3620                 0.2958
 IR Inten    --      6.2179                90.6890                 1.4393

                     34                     35                     36
                      A                      A                      A
 Frequencies --    390.4045               393.0250               415.6693
 Red. masses --     20.3840                 3.1162                 2.9812
 Frc consts  --      1.8305                 0.2836                 0.3035
 IR Inten    --     71.6765                60.8922                 6.8270

                     37                     38                     39
                      A                      A                      A
 Frequencies --    431.5371               469.7098               486.9144
 Red. masses --      4.0522                 3.3799                 3.2644
 Frc consts  --      0.4446                 0.4394                 0.4560
 IR Inten    --     10.8801                15.0121                11.5887

                     40                     41                     42
                      A                      A                      A
 Frequencies --    506.9812               551.5255               570.8136
 Red. masses --      3.4469                 3.7599                 3.7250
 Frc consts  --      0.5220                 0.6738                 0.7151
 IR Inten    --      7.9196                71.8112                25.7455

                     43                     44                     45
                      A                      A                      A
 Frequencies --    622.3527               641.3192               661.1015
 Red. masses --      5.4229                 3.9514                 4.6979
 Frc consts  --      1.2375                 0.9575                 1.2097
 IR Inten    --      0.0673                 4.8855                 5.9435

                     46                     47                     48
                      A                      A                      A
 Frequencies --    691.7380               694.0470               766.5323
 Red. masses --      3.1023                 1.6716                 2.0891
 Frc consts  --      0.8746                 0.4744                 0.7232
 IR Inten    --      8.8115                35.3394                73.7954

                     49                     50                     51
                      A                      A                      A
 Frequencies --    795.6255               809.7013               825.2790
 Red. masses --      5.7152                 1.1584                 3.5121
 Frc consts  --      2.1315                 0.4475                 1.4094
 IR Inten    --     14.5367                 3.6472                24.7128

                     52                     53                     54
                      A                      A                      A
 Frequencies --    843.2787               858.0385               861.3020
 Red. masses --      1.2710                 3.9714                 2.5997
 Frc consts  --      0.5325                 1.7227                 1.1363
 IR Inten    --     16.5907                47.0101                20.0842

                     55                     56                     57
                      A                      A                      A
 Frequencies --    885.8101               920.6063               928.6197
 Red. masses --      1.8511                 2.2538                 1.4731
 Frc consts  --      0.8558                 1.1254                 0.7484
 IR Inten    --      3.1843               104.3396                 4.7088

                     58                     59                     60
                      A                      A                      A
 Frequencies --    940.7394               953.5189               975.1638
 Red. masses --      2.7182                 1.5001                 2.0663
 Frc consts  --      1.4173                 0.8036                 1.1577
 IR Inten    --     29.9069                12.5230               102.8982

                     61                     62                     63
                      A                      A                      A
 Frequencies --    987.5913               989.6559               994.2251
 Red. masses --      1.4055                 1.5032                 1.3694
 Frc consts  --      0.8077                 0.8674                 0.7975
 IR Inten    --     50.6977                 4.4993                27.9888

                     64                     65                     66
                      A                      A                      A
 Frequencies --   1004.9885              1014.7079              1021.9826
 Red. masses --      2.5270                 1.7248                 2.6807
 Frc consts  --      1.5038                 1.0464                 1.6496
 IR Inten    --      2.6003                 0.3010                48.0054

                     67                     68                     69
                      A                      A                      A
 Frequencies --   1030.3451              1041.8144              1049.8718
 Red. masses --      1.9823                 2.4231                 1.9535
 Frc consts  --      1.2399                 1.5496                 1.2686
 IR Inten    --     69.2959                25.4746                 1.8312

                     70                     71                     72
                      A                      A                      A
 Frequencies --   1057.2531              1084.2697              1103.8369
 Red. masses --      1.7057                 1.6022                 1.6228
 Frc consts  --      1.1234                 1.1098                 1.1650
 IR Inten    --     80.1394                35.9754                18.4909

                     73                     74                     75
                      A                      A                      A
 Frequencies --   1127.2174              1132.2155              1157.8362
 Red. masses --      1.7345                 2.1705                 1.6294
 Frc consts  --      1.2985                 1.6393                 1.2870
 IR Inten    --     25.6184                13.7636                47.9841

                     76                     77                     78
                      A                      A                      A
 Frequencies --   1172.0405              1177.9852              1180.5077
 Red. masses --      1.5699                 1.4153                 1.2712
 Frc consts  --      1.2706                 1.1571                 1.0438
 IR Inten    --      2.5772                 1.5119                 2.9591

                     79                     80                     81
                      A                      A                      A
 Frequencies --   1200.4237              1209.7351              1211.6330
 Red. masses --      1.6630                 1.2180                 2.3144
 Frc consts  --      1.4120                 1.0502                 2.0018
 IR Inten    --     21.2465                 2.0243                27.0757

                     82                     83                     84
                      A                      A                      A
 Frequencies --   1222.0430              1255.1883              1267.5442
 Red. masses --      1.9700                 2.3753                 2.5351
 Frc consts  --      1.7334                 2.2049                 2.3998
 IR Inten    --     51.1992                51.2571               284.6405

                     85                     86                     87
                      A                      A                      A
 Frequencies --   1281.8265              1295.2601              1301.0043
 Red. masses --      1.8661                 1.1715                 1.8882
 Frc consts  --      1.8065                 1.1580                 1.8830
 IR Inten    --     53.4791                18.0430                19.1248

                     88                     89                     90
                      A                      A                      A
 Frequencies --   1330.3906              1345.1313              1355.0418
 Red. masses --      1.7123                 1.8326                 1.7693
 Frc consts  --      1.7857                 1.9536                 1.9141
 IR Inten    --     12.6064                41.6943                26.6461

                     91                     92                     93
                      A                      A                      A
 Frequencies --   1369.8173              1384.3547              1386.2489
 Red. masses --      3.3164                 1.2716                 1.2694
 Frc consts  --      3.6664                 1.4357                 1.4373
 IR Inten    --      5.3326                 4.1481                 7.5614

                     94                     95                     96
                      A                      A                      A
 Frequencies --   1402.2094              1418.0548              1452.7163
 Red. masses --      1.2652                 1.4197                 2.7542
 Frc consts  --      1.4657                 1.6820                 3.4246
 IR Inten    --     25.7895                16.1609               141.5995

                     97                     98                     99
                      A                      A                      A
 Frequencies --   1462.2141              1469.8064              1474.9872
 Red. masses --      1.0708                 2.1862                 1.0667
 Frc consts  --      1.3489                 2.7826                 1.3673
 IR Inten    --      1.2948                36.1577                 5.8119

                    100                    101                    102
                      A                      A                      A
 Frequencies --   1476.1930              1481.3374              1485.5445
 Red. masses --      1.0476                 1.0728                 1.0559
 Frc consts  --      1.3451                 1.3870                 1.3729
 IR Inten    --      4.6433                 1.8595                 2.1771

                    103                    104                    105
                      A                      A                      A
 Frequencies --   1490.0670              1494.4703              1505.3803
 Red. masses --      1.0743                 1.0826                 1.0852
 Frc consts  --      1.4053                 1.4246                 1.4489
 IR Inten    --      6.0099                 4.3204                 6.4162

                    106                    107                    108
                      A                      A                      A
 Frequencies --   1507.9806              1525.4892              1606.4824
 Red. masses --      1.1187                 2.5408                 4.8857
 Frc consts  --      1.4989                 3.4837                 7.4290
 IR Inten    --      1.3032                66.4885                 1.5138

                    109                    110                    111
                      A                      A                      A
 Frequencies --   1639.4142              1805.9701              2949.9197
 Red. masses --      5.6350                11.9685                 1.0779
 Frc consts  --      8.9233                22.9991                 5.5266
 IR Inten    --    108.0560               200.8957                14.0668

                    112                    113                    114
                      A                      A                      A
 Frequencies --   3030.4759              3034.9657              3041.2486
 Red. masses --      1.0732                 1.0374                 1.0352
 Frc consts  --      5.8068                 5.6298                 5.6413
 IR Inten    --     36.3802                 2.5806                14.4309

                    115                    116                    117
                      A                      A                      A
 Frequencies --   3042.9370              3068.3337              3092.0653
 Red. masses --      1.0374                 1.0625                 1.0614
 Frc consts  --      5.6596                 5.8939                 5.9792
 IR Inten    --     23.0982                23.3424                15.4247

                    118                    119                    120
                      A                      A                      A
 Frequencies --   3109.8780              3114.2478              3120.2316
 Red. masses --      1.1006                 1.1030                 1.1020
 Frc consts  --      6.2717                 6.3027                 6.3210
 IR Inten    --      8.5183                13.3559                12.7436

                    121                    122                    123
                      A                      A                      A
 Frequencies --   3122.2482              3136.5370              3143.8439
 Red. masses --      1.1004                 1.0921                 1.1066
 Frc consts  --      6.3200                 6.3300                 6.4440
 IR Inten    --     24.3649                14.3478                 7.5644

                    124                    125                    126
                      A                      A                      A
 Frequencies --   3146.9838              3149.0105              3152.4509
 Red. masses --      1.1060                 1.0886                 1.0985
 Frc consts  --      6.4533                 6.3601                 6.4322
 IR Inten    --      7.7570                 1.9125                 7.0517

                    127                    128                    129
                      A                      A                      A
 Frequencies --   3155.2745              3179.2218              3189.4892
 Red. masses --      1.1015                 1.0860                 1.0894
 Frc consts  --      6.4610                 6.4674                 6.5295
 IR Inten    --      9.3330                 0.3244                 2.6307

                    130                    131                    132
                      A                      A                      A
 Frequencies --   3198.8613              3205.4470              3253.6934
 Red. masses --      1.0940                 1.0985                 1.0935
 Frc consts  --      6.5956                 6.6503                 6.8204
 IR Inten    --      5.6087                 7.2253                28.3396

 - Thermochemistry -
 -------------------
 Temperature   298.150 Kelvin.  Pressure   1.00000 Atm.
 Atom     1 has atomic number  6 and mass  12.00000

 Molecular mass:   434.99839 amu.
 Principal axes and moments of inertia in atomic units:
                           1         2         3
     Eigenvalues --  8591.64384********************
           X            0.99798   0.05141  -0.03727
           Y           -0.05327   0.99729  -0.05066
           Z            0.03456   0.05255   0.99802
 This molecule is an asymmetric top.
 Rotational symmetry number  1.
 Warning -- assumption of classical behavior for rotation
           may cause significant error
 Rotational temperatures (Kelvin)      0.01008     0.00759     0.00692
 Rotational constants (GHZ):           0.21006     0.15807     0.14423
    1 imaginary frequencies ignored.
 Zero-point vibrational energy     943953.2 (Joules/Mol)
                                  225.61022 (Kcal/Mol)
 Warning -- explicit consideration of  41 degrees of freedom as
           vibrations may cause significant error
 Vibrational temperatures:     24.74    37.36    37.67    68.67    75.36
          (Kelvin)             89.59    96.37   108.36   111.92   135.12
                              148.87   160.24   173.99   194.14   195.77
                              207.57   240.34   256.27   309.15   324.05
                              362.45   365.00   374.00   385.40   409.08
                              456.25   469.06   482.68   496.21   528.46
                              537.09   549.32   561.71   565.48   598.06
                              620.89   675.81   700.56   729.43   793.52
                              821.27   895.43   922.72   951.18   995.26
                              998.58  1102.87  1144.73  1164.98  1187.39
                             1213.29  1234.53  1239.22  1274.48  1324.55
                             1336.08  1353.51  1371.90  1403.04  1420.92
                             1423.89  1430.47  1445.95  1459.94  1470.41
                             1482.44  1498.94  1510.53  1521.15  1560.02
                             1588.18  1621.81  1629.01  1665.87  1686.30
                             1694.86  1698.49  1727.14  1740.54  1743.27
                             1758.25  1805.94  1823.71  1844.26  1863.59
                             1871.86  1914.14  1935.34  1949.60  1970.86
                             1991.78  1994.50  2017.47  2040.26  2090.13
                             2103.80  2114.72  2122.18  2123.91  2131.31
                             2137.37  2143.87  2150.21  2165.91  2169.65
                             2194.84  2311.37  2358.75  2598.39  4244.28
                             4360.18  4366.64  4375.68  4378.11  4414.65
                             4448.79  4474.42  4480.71  4489.32  4492.22
                             4512.78  4523.29  4527.81  4530.72  4535.67
                             4539.74  4574.19  4588.96  4602.45  4611.92
                             4681.34

 Zero-point correction=                           0.359533 (Hartree/Particle)
 Thermal correction to Energy=                    0.386397
 Thermal correction to Enthalpy=                  0.387341
 Thermal correction to Gibbs Free Energy=         0.297988
 Sum of electronic and zero-point Energies=          -3531.164266
 Sum of electronic and thermal Energies=             -3531.137402
 Sum of electronic and thermal Enthalpies=           -3531.136458
 Sum of electronic and thermal Free Energies=        -3531.225812

                     E (Thermal)             CV                S
                      KCal/Mol        Cal/Mol-Kelvin    Cal/Mol-Kelvin
 Total                  242.468             96.936            188.061
 Electronic               0.000              0.000              3.561
 Translational            0.889              2.981             44.100
 Rotational               0.889              2.981             35.461
 Vibrational            240.690             90.974            104.939
 Vibration     1          0.593              1.986              6.934
 Vibration     2          0.593              1.985              6.116
 Vibration     3          0.593              1.985              6.100
 Vibration     4          0.595              1.978              4.909
 Vibration     5          0.596              1.977              4.726
 Vibration     6          0.597              1.972              4.384
 Vibration     7          0.598              1.970              4.240
 Vibration     8          0.599              1.965              4.009
 Vibration     9          0.599              1.964              3.946
 Vibration    10          0.603              1.954              3.577
 Vibration    11          0.605              1.946              3.388
 Vibration    12          0.607              1.940              3.245
 Vibration    13          0.609              1.932              3.086
 Vibration    14          0.613              1.918              2.874
 Vibration    15          0.614              1.917              2.858
 Vibration    16          0.616              1.909              2.746
 Vibration    17          0.624              1.883              2.468
 Vibration    18          0.629              1.869              2.348
 Vibration    19          0.645              1.818              2.002
 Vibration    20          0.650              1.803              1.917
 Vibration    21          0.664              1.760              1.717
 Vibration    22          0.665              1.757              1.705
 Vibration    23          0.668              1.746              1.662
 Vibration    24          0.673              1.732              1.610
 Vibration    25          0.683              1.703              1.508
 Vibration    26          0.704              1.641              1.325
 Vibration    27          0.710              1.623              1.280
 Vibration    28          0.717              1.605              1.234
 Vibration    29          0.723              1.586              1.189
 Vibration    30          0.740              1.540              1.091
 Vibration    31          0.745              1.527              1.066
 Vibration    32          0.751              1.509              1.032
 Vibration    33          0.758              1.491              0.999
 Vibration    34          0.760              1.485              0.989
 Vibration    35          0.779              1.436              0.907
 Vibration    36          0.793              1.402              0.854
 Vibration    37          0.827              1.317              0.738
 Vibration    38          0.843              1.279              0.692
 Vibration    39          0.862              1.235              0.641
 Vibration    40          0.907              1.136              0.541
 Vibration    41          0.927              1.094              0.503

 Optimization completed.
    -- Stationary point found.
 Normal termination of Gaussian 16 at Thu Jun  3 02:20:29 2021.
