 Gaussian 16, Revision A.03,
 Gaussian 16:  ES64L-G16RevA.03 25-Dec-2016

 ----------------------------------------------------------------------
 #p opt=(ts,noeigentest,calcfc) freq=noraman b3lyp jul-cc-pvdz pop=none
  empiricaldispersion=gd3bj
 ----------------------------------------------------------------------

 -----
 title
 -----
 Symbolic Z-matrix:
 Charge =  0 Multiplicity = 6

 SCF Done:  E(UB3LYP) =  -3531.53396587     A.U. after   25 cycles
 Optimization completed.
    -- Stationary point found.
 Normal termination of Gaussian 16 at Wed Jun  2 20:36:12 2021.

 ----------------------------------------------------------------------
 #P Geom=AllCheck Guess=TCheck SCRF=Check GenChk UB3LYP/Jul-CC-pVDZ Fre
 q
 ----------------------------------------------------------------------

 Structure from the checkpoint file:  "/scratch/kwaneu.2863100.bmbhpcps002/Gau-78661.chk"
 -----
 title
 -----
 Charge =  0 Multiplicity = 6

                         Standard orientation:
 ---------------------------------------------------------------------
 Center     Atomic      Atomic             Coordinates (Angstroms)
 Number     Number       Type             X           Y           Z
 ---------------------------------------------------------------------
      1          6           0       -1.812545    1.000535   -1.192539
      2          6           0       -1.728966    1.316027    0.186195
      3          6           0       -2.290621    2.528967    0.656165
      4          6           0       -2.938727    3.387701   -0.220717
      5          6           0       -2.997171    3.071585   -1.585826
      6          6           0       -2.424209    1.888735   -2.068880
      7          6           0       -1.047619    0.435969    1.084718
      8          6           0       -0.956677   -1.048052    0.884886
      9          6           0       -0.095890   -1.569532    2.055394
     10          6           0       -0.143036   -0.438542    3.097013
     11          6           0       -0.284032    0.823714    2.239228
     12          6           0        1.229759    1.314980    1.448534
     13          6           0        1.087418    2.811566    1.186639
     14          8           0        1.357104    0.637694    0.278957
     15         26           0        2.431573   -0.399427   -0.813647
     16         17           0        3.919963    0.912364   -1.786612
     17          6           0        2.348199    1.017378    2.439270
     18         17           0        0.926192   -1.311188   -2.226601
     19         17           0        3.369208   -1.975495    0.449739
     20          1           0       -2.244159    2.766740    1.717679
     21          1           0       -3.392052    4.307171    0.148819
     22          1           0       -3.487937    3.757436   -2.277870
     23          1           0       -2.448529    1.663059   -3.134643
     24          1           0       -1.332319    0.102477   -1.573987
     25          1           0       -0.530112   -1.263007   -0.108221
     26          6           0       -2.387164   -1.614718    0.908222
     27          1           0       -0.483467   -2.514761    2.446321
     28          1           0        0.924890   -1.736308    1.697487
     29          1           0       -1.036079   -0.534737    3.730778
     30          1           0        0.728208   -0.420173    3.757016
     31          1           0       -0.585826    1.742189    2.747583
     32          1           0        2.169711    1.487038    3.415086
     33          1           0        2.507465   -0.057730    2.558887
     34          1           0        3.269402    1.439043    2.012026
     35          1           0        0.960263    3.377963    2.118861
     36          1           0        2.011278    3.140655    0.692325
     37          1           0        0.257308    3.029167    0.506905
     38          8           0       -2.906612   -1.665288   -0.322385
     39          8           0       -2.961086   -1.954998    1.918117
     40          6           0       -4.284695   -2.123321   -0.428118
     41          6           0       -4.686354   -1.991004   -1.881094
     42          1           0       -4.325962   -3.161111   -0.072544
     43          1           0       -4.902048   -1.507980    0.239395
     44          1           0       -5.720893   -2.339628   -2.007475
     45          1           0       -4.629030   -0.943878   -2.208668
     46          1           0       -4.033449   -2.596268   -2.523943
 ---------------------------------------------------------------------

 SCF Done:  E(UB3LYP) =  -3531.53396587     A.U. after    1 cycles

 Isotropic polarizability for W=    0.000000      309.71 Bohr**3.
 End of Minotr F.D. properties file   721 does not exist.

 ******    1 imaginary frequencies (negative Signs) ******

                      1                      2                      3
                      A                      A                      A
 Frequencies --   -259.1953                17.3895                23.9123
 Red. masses --      8.3519                 4.5629                10.9145
 Frc consts  --      0.3306                 0.0008                 0.0037
 IR Inten    --    461.7468                 0.4952                 0.6462

                      4                      5                      6
                      A                      A                      A
 Frequencies --     30.0398                39.0915                44.3503
 Red. masses --      6.2064                 6.2081                 6.5674
 Frc consts  --      0.0033                 0.0056                 0.0076
 IR Inten    --      0.8489                 2.6601                 0.3483

                      7                      8                      9
                      A                      A                      A
 Frequencies --     53.1878                63.2159                69.3932
 Red. masses --      5.7998                 2.9359                 6.8312
 Frc consts  --      0.0097                 0.0069                 0.0194
 IR Inten    --      2.0188                 0.2113                 0.7590

                     10                     11                     12
                      A                      A                      A
 Frequencies --     78.8677                88.5124                96.1826
 Red. masses --      4.7450                 3.5951                 8.0463
 Frc consts  --      0.0174                 0.0166                 0.0439
 IR Inten    --      0.1772                 0.9026                 4.1112

                     13                     14                     15
                      A                      A                      A
 Frequencies --    100.8567               115.1139               120.1974
 Red. masses --     14.8536                15.9084                 5.4573
 Frc consts  --      0.0890                 0.1242                 0.0465
 IR Inten    --      0.5904                 9.3120                 9.4104

                     16                     17                     18
                      A                      A                      A
 Frequencies --    133.3191               142.6370               160.1715
 Red. masses --      5.2417                 5.8984                 3.5558
 Frc consts  --      0.0549                 0.0707                 0.0537
 IR Inten    --      3.9354                 0.3810                 3.2565

                     19                     20                     21
                      A                      A                      A
 Frequencies --    167.8880               188.1595               205.9446
 Red. masses --      4.7009                 3.8742                 3.2222
 Frc consts  --      0.0781                 0.0808                 0.0805
 IR Inten    --      2.6292                 9.7759                 2.0579

                     22                     23                     24
                      A                      A                      A
 Frequencies --    246.7872               254.5435               262.1709
 Red. masses --      1.0982                 2.3272                 1.9546
 Frc consts  --      0.0394                 0.0888                 0.0792
 IR Inten    --      2.8083                 7.8608                 3.5142

                     25                     26                     27
                      A                      A                      A
 Frequencies --    275.8677               287.6813               313.9513
 Red. masses --      3.1304                 1.5383                 3.1266
 Frc consts  --      0.1404                 0.0750                 0.1816
 IR Inten    --     24.4518                 0.9093                10.0634

                     28                     29                     30
                      A                      A                      A
 Frequencies --    325.6447               338.7473               348.8234
 Red. masses --      3.1802                 7.2390                 2.4578
 Frc consts  --      0.1987                 0.4894                 0.1762
 IR Inten    --     13.5187                19.5625                 4.8948

                     31                     32                     33
                      A                      A                      A
 Frequencies --    365.6359               371.3218               385.1035
 Red. masses --      4.8834                 5.5253                 3.3681
 Frc consts  --      0.3847                 0.4489                 0.2943
 IR Inten    --     20.8197                98.7471                21.3998

                     34                     35                     36
                      A                      A                      A
 Frequencies --    391.8058               407.1182               417.8575
 Red. masses --     25.9655                 2.8525                 3.9126
 Frc consts  --      2.3485                 0.2786                 0.4025
 IR Inten    --     91.5142                 2.4052                 0.3310

                     37                     38                     39
                      A                      A                      A
 Frequencies --    432.0853               460.7654               479.4617
 Red. masses --      3.9411                 3.3734                 3.8902
 Frc consts  --      0.4335                 0.4220                 0.5269
 IR Inten    --      7.5971                 4.2994                28.0913

                     40                     41                     42
                      A                      A                      A
 Frequencies --    519.0175               539.5824               617.4333
 Red. masses --      2.8399                 3.9888                 4.9560
 Frc consts  --      0.4507                 0.6842                 1.1132
 IR Inten    --     59.3410                55.3913                 7.3998

                     43                     44                     45
                      A                      A                      A
 Frequencies --    622.0369               646.5899               673.8381
 Red. masses --      5.9311                 2.5218                 5.1065
 Frc consts  --      1.3521                 0.6212                 1.3661
 IR Inten    --      0.2388                 1.2240                 6.8418

                     46                     47                     48
                      A                      A                      A
 Frequencies --    684.0318               720.0228               767.2951
 Red. masses --      1.5736                 4.6969                 2.3308
 Frc consts  --      0.4338                 1.4347                 0.8085
 IR Inten    --     41.2342                 4.5176                32.5861

                     49                     50                     51
                      A                      A                      A
 Frequencies --    807.4425               813.7538               840.8426
 Red. masses --      1.1219                 3.6096                 1.2653
 Frc consts  --      0.4309                 1.4083                 0.5271
 IR Inten    --      1.2723                 2.7840                 5.4716

                     52                     53                     54
                      A                      A                      A
 Frequencies --    843.8134               858.1015               873.6131
 Red. masses --      2.9832                 3.6468                 2.7682
 Frc consts  --      1.2515                 1.5821                 1.2447
 IR Inten    --     25.9630               109.6343                17.2421

                     55                     56                     57
                      A                      A                      A
 Frequencies --    888.2652               915.3626               925.5304
 Red. masses --      3.4090                 2.5161                 1.9586
 Frc consts  --      1.5847                 1.2421                 0.9885
 IR Inten    --      7.1086                 1.3685                86.2735

                     58                     59                     60
                      A                      A                      A
 Frequencies --    930.5228               956.2407               975.1167
 Red. masses --      1.6245                 1.5170                 1.9044
 Frc consts  --      0.8288                 0.8173                 1.0669
 IR Inten    --     16.4325                10.3855               212.5222

                     61                     62                     63
                      A                      A                      A
 Frequencies --    989.3569               992.9241               997.2522
 Red. masses --      1.4725                 1.4683                 2.6556
 Frc consts  --      0.8492                 0.8529                 1.5560
 IR Inten    --      4.5373                15.4934                31.9294

                     64                     65                     66
                      A                      A                      A
 Frequencies --   1007.2244              1011.2788              1016.1888
 Red. masses --      3.0497                 1.7603                 1.4725
 Frc consts  --      1.8229                 1.0607                 0.8959
 IR Inten    --      1.5244                53.2620                46.0731

                     67                     68                     69
                      A                      A                      A
 Frequencies --   1037.4754              1044.4844              1048.0908
 Red. masses --      2.1234                 1.8962                 2.0368
 Frc consts  --      1.3466                 1.2188                 1.3182
 IR Inten    --     38.2111                99.5019                 0.5544

                     70                     71                     72
                      A                      A                      A
 Frequencies --   1059.6027              1079.8694              1107.1299
 Red. masses --      1.8843                 1.9613                 1.6241
 Frc consts  --      1.2465                 1.3475                 1.1729
 IR Inten    --     63.2163                18.1907                14.3686

                     73                     74                     75
                      A                      A                      A
 Frequencies --   1128.0067              1132.9981              1168.4542
 Red. masses --      1.4838                 2.1304                 1.5180
 Frc consts  --      1.1124                 1.6113                 1.2210
 IR Inten    --     33.7777                30.2034                 8.3798

                     76                     77                     78
                      A                      A                      A
 Frequencies --   1169.7002              1180.4599              1186.3421
 Red. masses --      1.5438                 1.1070                 1.4254
 Frc consts  --      1.2445                 0.9089                 1.1819
 IR Inten    --      3.0450                 3.2010                 6.7450

                     79                     80                     81
                      A                      A                      A
 Frequencies --   1199.9592              1210.3883              1213.3481
 Red. masses --      2.2521                 1.3375                 2.6279
 Frc consts  --      1.9106                 1.1545                 2.2795
 IR Inten    --    205.5686                18.6045                42.0321

                     82                     83                     84
                      A                      A                      A
 Frequencies --   1241.8075              1257.2580              1281.3910
 Red. masses --      2.0769                 2.0963                 2.4867
 Frc consts  --      1.8870                 1.9523                 2.4057
 IR Inten    --    113.4388               210.6954               171.9977

                     85                     86                     87
                      A                      A                      A
 Frequencies --   1282.8949              1289.0538              1316.3892
 Red. masses --      1.1139                 1.5388                 1.7404
 Frc consts  --      1.0801                 1.5066                 1.7769
 IR Inten    --      0.7965                49.7184                31.0240

                     88                     89                     90
                      A                      A                      A
 Frequencies --   1330.2656              1349.5909              1364.2200
 Red. masses --      1.7161                 1.5844                 1.5037
 Frc consts  --      1.7893                 1.7003                 1.6488
 IR Inten    --     22.7172                46.6158                 6.2318

                     91                     92                     93
                      A                      A                      A
 Frequencies --   1377.1592              1380.9811              1386.1820
 Red. masses --      2.8010                 1.6306                 1.2711
 Frc consts  --      3.1299                 1.8322                 1.4390
 IR Inten    --      9.7368                10.7438                12.6851

                     94                     95                     96
                      A                      A                      A
 Frequencies --   1401.4843              1415.0655              1458.7787
 Red. masses --      1.2584                 1.4274                 2.4515
 Frc consts  --      1.4563                 1.6841                 3.0737
 IR Inten    --     13.1141                14.0551               139.7757

                     97                     98                     99
                      A                      A                      A
 Frequencies --   1462.5495              1473.9382              1474.3079
 Red. masses --      1.0597                 1.2941                 1.0420
 Frc consts  --      1.3355                 1.6565                 1.3344
 IR Inten    --      2.7226                 6.2584                 5.1440

                    100                    101                    102
                      A                      A                      A
 Frequencies --   1476.4125              1480.2388              1486.9895
 Red. masses --      1.6579                 1.0772                 1.0536
 Frc consts  --      2.1293                 1.3906                 1.3725
 IR Inten    --     49.8167                 4.8421                 2.6468

                    103                    104                    105
                      A                      A                      A
 Frequencies --   1489.0777              1493.1486              1507.5787
 Red. masses --      1.0759                 1.0892                 1.0855
 Frc consts  --      1.4056                 1.4307                 1.4535
 IR Inten    --      2.4238                 8.9902                 5.9084

                    106                    107                    108
                      A                      A                      A
 Frequencies --   1509.8967              1536.2232              1605.4071
 Red. masses --      1.1142                 2.9300                 4.8019
 Frc consts  --      1.4966                 4.0740                 7.2918
 IR Inten    --      2.3261               108.4026                 1.4271

                    109                    110                    111
                      A                      A                      A
 Frequencies --   1642.1633              1777.1660              3007.8993
 Red. masses --      5.5791                11.0472                 1.0826
 Frc consts  --      8.8643                20.5569                 5.7709
 IR Inten    --    149.0224               233.7321               113.9426

                    112                    113                    114
                      A                      A                      A
 Frequencies --   3037.1909              3041.5719              3043.3942
 Red. masses --      1.0369                 1.0351                 1.0372
 Frc consts  --      5.6353                 5.6420                 5.6602
 IR Inten    --      1.5245                11.0993                18.9531

                    115                    116                    117
                      A                      A                      A
 Frequencies --   3056.8283              3064.5451              3095.5856
 Red. masses --      1.0710                 1.0582                 1.0609
 Frc consts  --      5.8962                 5.8552                 5.9900
 IR Inten    --     22.5472                15.1295                 6.6145

                    118                    119                    120
                      A                      A                      A
 Frequencies --   3107.5024              3110.9510              3119.6838
 Red. masses --      1.1065                 1.1014                 1.1017
 Frc consts  --      6.2955                 6.2803                 6.3176
 IR Inten    --      0.7449                 4.2722                21.4285

                    121                    122                    123
                      A                      A                      A
 Frequencies --   3121.0758              3132.2467              3136.3058
 Red. masses --      1.1018                 1.1063                 1.0884
 Frc consts  --      6.3234                 6.3950                 6.3080
 IR Inten    --     24.4547                24.7009                 8.8550

                    124                    125                    126
                      A                      A                      A
 Frequencies --   3140.9000              3145.3460              3151.0825
 Red. masses --      1.0943                 1.0994                 1.1068
 Frc consts  --      6.3608                 6.4086                 6.4751
 IR Inten    --     12.2304                11.9530                 5.6683

                    127                    128                    129
                      A                      A                      A
 Frequencies --   3161.7245              3180.0852              3193.4970
 Red. masses --      1.1009                 1.0868                 1.0896
 Frc consts  --      6.4840                 6.4756                 6.5470
 IR Inten    --      4.1794                 0.7117                 3.5080

                    130                    131                    132
                      A                      A                      A
 Frequencies --   3200.7208              3209.2385              3220.8286
 Red. masses --      1.0939                 1.0970                 1.0957
 Frc consts  --      6.6028                 6.6565                 6.6967
 IR Inten    --      4.8029                 3.5705                25.1443

 - Thermochemistry -
 -------------------
 Temperature   298.150 Kelvin.  Pressure   1.00000 Atm.
 Atom     1 has atomic number  6 and mass  12.00000

 Molecular mass:   434.99839 amu.
 Principal axes and moments of inertia in atomic units:
                           1         2         3
     Eigenvalues --  7860.76128********************
           X            0.99890   0.01636   0.04387
           Y           -0.02045   0.99533   0.09435
           Z           -0.04212  -0.09515   0.99457
 This molecule is an asymmetric top.
 Rotational symmetry number  1.
 Warning -- assumption of classical behavior for rotation
           may cause significant error
 Rotational temperatures (Kelvin)      0.01102     0.00623     0.00597
 Rotational constants (GHZ):           0.22959     0.12982     0.12441
    1 imaginary frequencies ignored.
 Zero-point vibrational energy     944622.9 (Joules/Mol)
                                  225.77029 (Kcal/Mol)
 Warning -- explicit consideration of  41 degrees of freedom as
           vibrations may cause significant error
 Vibrational temperatures:     25.02    34.40    43.22    56.24    63.81
          (Kelvin)             76.53    90.95    99.84   113.47   127.35
                              138.39   145.11   165.62   172.94   191.82
                              205.22   230.45   241.55   270.72   296.31
                              355.07   366.23   377.21   396.91   413.91
                              451.71   468.53   487.38   501.88   526.07
                              534.25   554.08   563.72   585.75   601.20
                              621.67   662.94   689.84   746.75   776.34
                              888.35   894.97   930.30   969.50   984.17
                             1035.95  1103.97  1161.73  1170.81  1209.78
                             1214.06  1234.62  1256.93  1278.02  1317.00
                             1331.63  1338.81  1375.82  1402.98  1423.46
                             1428.60  1434.82  1449.17  1455.00  1462.07
                             1492.70  1502.78  1507.97  1524.53  1553.69
                             1592.91  1622.95  1630.13  1681.14  1682.94
                             1698.42  1706.88  1726.47  1741.48  1745.74
                             1786.68  1808.91  1843.64  1845.80  1854.66
                             1893.99  1913.96  1941.76  1962.81  1981.42
                             1986.92  1994.41  2016.42  2035.96  2098.86
                             2104.28  2120.67  2121.20  2124.23  2129.73
                             2139.45  2142.45  2148.31  2169.07  2172.40
                             2210.28  2309.82  2362.71  2556.95  4327.70
                             4369.84  4376.14  4378.77  4398.09  4409.20
                             4453.86  4471.00  4475.96  4488.53  4490.53
                             4506.60  4512.44  4519.05  4525.45  4533.70
                             4549.02  4575.43  4594.73  4605.12  4617.38
                             4634.05

 Zero-point correction=                           0.359788 (Hartree/Particle)
 Thermal correction to Energy=                    0.386831
 Thermal correction to Enthalpy=                  0.387775
 Thermal correction to Gibbs Free Energy=         0.297200
 Sum of electronic and zero-point Energies=          -3531.174178
 Sum of electronic and thermal Energies=             -3531.147135
 Sum of electronic and thermal Enthalpies=           -3531.146191
 Sum of electronic and thermal Free Energies=        -3531.236766

                     E (Thermal)             CV                S
                      KCal/Mol        Cal/Mol-Kelvin    Cal/Mol-Kelvin
 Total                  242.740             96.769            190.632
 Electronic               0.000              0.000              3.561
 Translational            0.889              2.981             44.100
 Rotational               0.889              2.981             35.715
 Vibrational            240.963             90.807            107.256
 Vibration     1          0.593              1.986              6.912
 Vibration     2          0.593              1.985              6.279
 Vibration     3          0.594              1.984              5.827
 Vibration     4          0.594              1.981              5.305
 Vibration     5          0.595              1.980              5.055
 Vibration     6          0.596              1.976              4.695
 Vibration     7          0.597              1.972              4.354
 Vibration     8          0.598              1.969              4.170
 Vibration     9          0.600              1.963              3.919
 Vibration    10          0.601              1.957              3.693
 Vibration    11          0.603              1.952              3.530
 Vibration    12          0.604              1.948              3.438
 Vibration    13          0.608              1.937              3.181
 Vibration    14          0.609              1.932              3.097
 Vibration    15          0.613              1.920              2.898
 Vibration    16          0.616              1.911              2.768
 Vibration    17          0.622              1.891              2.548
 Vibration    18          0.625              1.882              2.459
 Vibration    19          0.633              1.856              2.246
 Vibration    20          0.640              1.831              2.079
 Vibration    21          0.661              1.768              1.753
 Vibration    22          0.665              1.755              1.699
 Vibration    23          0.669              1.742              1.647
 Vibration    24          0.678              1.718              1.559
 Vibration    25          0.685              1.697              1.488
 Vibration    26          0.702              1.647              1.341
 Vibration    27          0.710              1.624              1.282
 Vibration    28          0.719              1.598              1.218
 Vibration    29          0.726              1.578              1.171
 Vibration    30          0.739              1.543              1.098
 Vibration    31          0.743              1.531              1.074
 Vibration    32          0.754              1.502              1.019
 Vibration    33          0.759              1.488              0.993
 Vibration    34          0.772              1.455              0.937
 Vibration    35          0.781              1.431              0.899
 Vibration    36          0.793              1.400              0.852
 Vibration    37          0.819              1.337              0.764
 Vibration    38          0.836              1.296              0.712
 Vibration    39          0.874              1.208              0.612
 Vibration    40          0.895              1.163              0.566
 Vibration    41          0.977              0.995              0.421

 Optimization completed.
    -- Stationary point found.
 Normal termination of Gaussian 16 at Thu Jun  3 00:03:58 2021.
