 Gaussian 16, Revision A.03,
 Gaussian 16:  ES64L-G16RevA.03 25-Dec-2016

 ----------------------------------------------------------------------
 #p opt=(ts,noeigentest,calcfc) freq=noraman b3lyp jul-cc-pvdz pop=none
  empiricaldispersion=gd3bj
 ----------------------------------------------------------------------

 -----
 title
 -----
 Symbolic Z-matrix:
 Charge =  0 Multiplicity = 6

 SCF Done:  E(UB3LYP) =  -3531.53273254     A.U. after   25 cycles
 Optimization completed.
    -- Stationary point found.
 Normal termination of Gaussian 16 at Wed Jun  2 21:10:52 2021.

 ----------------------------------------------------------------------
 #P Geom=AllCheck Guess=TCheck SCRF=Check GenChk UB3LYP/Jul-CC-pVDZ Fre
 q
 ----------------------------------------------------------------------

 Structure from the checkpoint file:  "/scratch/kwaneu.2863086.bmbhpcps002/Gau-34728.chk"
 -----
 title
 -----
 Charge =  0 Multiplicity = 6

                         Standard orientation:
 ---------------------------------------------------------------------
 Center     Atomic      Atomic             Coordinates (Angstroms)
 Number     Number       Type             X           Y           Z
 ---------------------------------------------------------------------
      1          6           0       -2.815899   -1.661944   -0.354999
      2          6           0       -1.677099   -0.906747   -0.670874
      3          6           0       -1.696763   -0.093622   -1.810373
      4          6           0       -2.832625   -0.041515   -2.622565
      5          6           0       -3.962153   -0.799636   -2.305053
      6          6           0       -3.950728   -1.609713   -1.164493
      7          6           0       -0.452126   -0.902674    0.233763
      8          6           0       -0.752033   -0.386311    1.697308
      9          6           0       -0.802738   -1.605841    2.615329
     10          6           0        0.290610   -2.516290    2.045604
     11          6           0        0.071777   -2.432596    0.534294
     12          6           0        1.205120   -2.583826   -0.379470
     13          6           0        0.976374   -2.662105   -1.826542
     14          8           0        0.581804   -0.218272   -0.380243
     15         26           0        1.991515    0.961224   -0.228233
     16         17           0        1.368992    3.058687   -0.431922
     17          6           0        2.576820   -2.645365    0.115664
     18         17           0        3.342107    0.231782   -1.865540
     19         17           0        2.903478    0.473452    1.779160
     20          1           0       -0.821390    0.508080   -2.041216
     21          1           0       -2.833093    0.598819   -3.505441
     22          1           0       -4.848751   -0.758708   -2.938911
     23          1           0       -4.830599   -2.196661   -0.899569
     24          1           0       -2.837313   -2.280926    0.541659
     25          1           0        0.116755    0.229831    1.957009
     26          6           0       -1.981822    0.493914    1.749519
     27          1           0       -0.624202   -1.334586    3.662212
     28          1           0       -1.792301   -2.078933    2.566187
     29          1           0        1.270837   -2.108186    2.319708
     30          1           0        0.233116   -3.548898    2.413852
     31          1           0       -0.735338   -3.098723    0.202573
     32          1           0        2.784778   -1.709970    0.679673
     33          1           0        2.656424   -3.437912    0.877544
     34          1           0        3.321028   -2.765530   -0.674979
     35          1           0        1.605524   -1.885195   -2.298108
     36          1           0        1.382495   -3.625828   -2.182141
     37          1           0       -0.070895   -2.553622   -2.116966
     38          8           0       -1.778320    1.608151    1.035987
     39          8           0       -3.011208    0.221201    2.331923
     40          6           0       -2.915428    2.490603    0.852467
     41          6           0       -2.510019    3.528742   -0.171860
     42          1           0       -3.768674    1.883243    0.522728
     43          1           0       -3.166609    2.934796    1.825328
     44          1           0       -3.336561    4.238092   -0.321209
     45          1           0       -1.621907    4.080830    0.160740
     46          1           0       -2.276345    3.052428   -1.133107
 ---------------------------------------------------------------------

 SCF Done:  E(UB3LYP) =  -3531.53273254     A.U. after    2 cycles

 Isotropic polarizability for W=    0.000000      296.35 Bohr**3.
 End of Minotr F.D. properties file   721 does not exist.

 ******    1 imaginary frequencies (negative Signs) ******

                      1                      2                      3
                      A                      A                      A
 Frequencies --   -240.9665                24.6915                35.4805
 Red. masses --      5.1336                 5.1942                 4.9982
 Frc consts  --      0.1756                 0.0019                 0.0037
 IR Inten    --     17.6610                 0.9672                 1.3174

                      4                      5                      6
                      A                      A                      A
 Frequencies --     38.1726                41.9449                47.9049
 Red. masses --      6.7788                 5.3103                 4.8894
 Frc consts  --      0.0058                 0.0055                 0.0066
 IR Inten    --      1.1988                 0.1432                 1.1364

                      7                      8                      9
                      A                      A                      A
 Frequencies --     57.1145                67.4714                69.5479
 Red. masses --      3.8856                 3.7695                 3.9761
 Frc consts  --      0.0075                 0.0101                 0.0113
 IR Inten    --      0.7321                 0.0267                 2.4287

                     10                     11                     12
                      A                      A                      A
 Frequencies --     84.3668                90.9292                98.3456
 Red. masses --      5.5698                 7.0191                12.9979
 Frc consts  --      0.0234                 0.0342                 0.0741
 IR Inten    --      2.4068                 0.5519                 1.0419

                     13                     14                     15
                      A                      A                      A
 Frequencies --    103.1769               115.3680               120.7455
 Red. masses --      7.8539                 9.3084                 5.9788
 Frc consts  --      0.0493                 0.0730                 0.0514
 IR Inten    --     12.7454                 0.9056                 0.0490

                     16                     17                     18
                      A                      A                      A
 Frequencies --    136.8083               144.5162               157.0301
 Red. masses --      4.2475                 3.6554                 4.3528
 Frc consts  --      0.0468                 0.0450                 0.0632
 IR Inten    --      1.8323                 5.6446                 0.6115

                     19                     20                     21
                      A                      A                      A
 Frequencies --    170.7859               192.4063               197.0286
 Red. masses --      1.5292                 2.6887                 2.2058
 Frc consts  --      0.0263                 0.0586                 0.0505
 IR Inten    --      3.8962                 2.0452                 4.6896

                     22                     23                     24
                      A                      A                      A
 Frequencies --    227.1012               243.6452               252.4659
 Red. masses --      2.9975                 1.5995                 2.5678
 Frc consts  --      0.0911                 0.0559                 0.0964
 IR Inten    --      9.7868                10.8909                 8.7970

                     25                     26                     27
                      A                      A                      A
 Frequencies --    256.1040               273.8892               290.7856
 Red. masses --      1.6426                 3.7428                 3.3662
 Frc consts  --      0.0635                 0.1654                 0.1677
 IR Inten    --      0.8668                 6.0081                 3.3640

                     28                     29                     30
                      A                      A                      A
 Frequencies --    309.1473               325.9378               335.5870
 Red. masses --      4.0449                 5.2148                 5.6824
 Frc consts  --      0.2278                 0.3264                 0.3770
 IR Inten    --      2.2529                39.6957                15.5452

                     31                     32                     33
                      A                      A                      A
 Frequencies --    359.6567               360.8639               383.8775
 Red. masses --      7.6273                 7.6977                 3.6737
 Frc consts  --      0.5813                 0.5906                 0.3190
 IR Inten    --     47.5973                33.0123                10.5615

                     34                     35                     36
                      A                      A                      A
 Frequencies --    401.0712               411.9617               419.7411
 Red. masses --     15.2301                 2.9156                 3.9320
 Frc consts  --      1.4434                 0.2915                 0.4082
 IR Inten    --     69.4160                 1.0442                23.3994

                     37                     38                     39
                      A                      A                      A
 Frequencies --    439.7746               477.2863               496.1690
 Red. masses --      4.0466                 3.5923                 2.7440
 Frc consts  --      0.4611                 0.4822                 0.3980
 IR Inten    --      8.3197                 2.7992                 3.1259

                     40                     41                     42
                      A                      A                      A
 Frequencies --    539.0619               556.2500               592.6672
 Red. masses --      2.8762                 3.1309                 3.2082
 Frc consts  --      0.4924                 0.5708                 0.6639
 IR Inten    --     12.8956                 7.4360                15.3409

                     43                     44                     45
                      A                      A                      A
 Frequencies --    629.6338               636.6984               706.1167
 Red. masses --      5.7469                 4.0323                 1.7630
 Frc consts  --      1.3423                 0.9631                 0.5179
 IR Inten    --      2.6551                 8.4628                27.9185

                     46                     47                     48
                      A                      A                      A
 Frequencies --    709.3971               727.8473               769.6627
 Red. masses --      4.3508                 3.0271                 3.5909
 Frc consts  --      1.2900                 0.9448                 1.2533
 IR Inten    --     97.4027                47.9887                 5.4036

                     49                     50                     51
                      A                      A                      A
 Frequencies --    774.9848               807.5031               814.8933
 Red. masses --      3.2517                 1.1250                 1.4389
 Frc consts  --      1.1506                 0.4322                 0.5630
 IR Inten    --     35.0231                 0.1600                10.7687

                     52                     53                     54
                      A                      A                      A
 Frequencies --    834.9434               847.3860               862.8292
 Red. masses --      2.0455                 1.2817                 3.5697
 Frc consts  --      0.8402                 0.5422                 1.5658
 IR Inten    --      3.7508                 1.9109                23.5974

                     55                     56                     57
                      A                      A                      A
 Frequencies --    877.7185               891.9295               927.7829
 Red. masses --      2.8976                 2.0480                 2.2259
 Frc consts  --      1.3152                 0.9599                 1.1289
 IR Inten    --     29.5920                 4.3727                 1.7695

                     58                     59                     60
                      A                      A                      A
 Frequencies --    932.1731               963.2438               982.8085
 Red. masses --      1.6880                 2.3819                 1.3771
 Frc consts  --      0.8642                 1.3021                 0.7837
 IR Inten    --      7.7995                15.7274                 1.1715

                     61                     62                     63
                      A                      A                      A
 Frequencies --    986.3576               999.5060              1004.7793
 Red. masses --      2.0342                 1.3272                 1.4697
 Frc consts  --      1.1660                 0.7812                 0.8742
 IR Inten    --     18.1818                 0.1924                15.6966

                     64                     65                     66
                      A                      A                      A
 Frequencies --   1005.3776              1013.9784              1018.6557
 Red. masses --      2.2516                 3.8779                 2.1261
 Frc consts  --      1.3409                 2.3491                 1.2998
 IR Inten    --      9.1485                 0.7512                27.9401

                     67                     68                     69
                      A                      A                      A
 Frequencies --   1033.4113              1048.5538              1052.7977
 Red. masses --      1.7073                 2.8077                 2.3764
 Frc consts  --      1.0743                 1.8188                 1.5519
 IR Inten    --      7.6267                18.5828                 8.9675

                     70                     71                     72
                      A                      A                      A
 Frequencies --   1063.3019              1102.1096              1119.4698
 Red. masses --      2.4741                 1.6756                 2.2605
 Frc consts  --      1.6481                 1.1991                 1.6691
 IR Inten    --     19.4769                34.9021                26.0283

                     73                     74                     75
                      A                      A                      A
 Frequencies --   1130.4251              1136.3724              1151.8042
 Red. masses --      3.0369                 2.2777                 1.5592
 Frc consts  --      2.2864                 1.7330                 1.2187
 IR Inten    --     70.1180                11.6103                99.4878

                     76                     77                     78
                      A                      A                      A
 Frequencies --   1166.2811              1170.9251              1173.4239
 Red. masses --      1.9980                 1.5785                 1.0894
 Frc consts  --      1.6012                 1.2751                 0.8838
 IR Inten    --     21.5074                 3.3840                 0.3983

                     79                     80                     81
                      A                      A                      A
 Frequencies --   1197.2203              1203.5256              1234.4567
 Red. masses --      1.3133                 1.7250                 1.6620
 Frc consts  --      1.1091                 1.4721                 1.4923
 IR Inten    --     30.2394                42.0291                68.8464

                     82                     83                     84
                      A                      A                      A
 Frequencies --   1247.7145              1248.6237              1284.2525
 Red. masses --      2.4800                 1.8399                 1.1043
 Frc consts  --      2.2747                 1.6901                 1.0731
 IR Inten    --    148.0283                96.0741                 1.8468

                     85                     86                     87
                      A                      A                      A
 Frequencies --   1309.1733              1314.9612              1316.8213
 Red. masses --      1.4230                 1.3019                 1.4803
 Frc consts  --      1.4370                 1.3264                 1.5123
 IR Inten    --     37.5751                77.4124               109.7521

                     88                     89                     90
                      A                      A                      A
 Frequencies --   1320.9357              1333.6899              1344.8247
 Red. masses --      1.3311                 1.5241                 1.2662
 Frc consts  --      1.3684                 1.5973                 1.3492
 IR Inten    --      9.5954                 7.1806                22.4822

                     91                     92                     93
                      A                      A                      A
 Frequencies --   1359.4448              1367.1932              1374.3947
 Red. masses --      4.3322                 1.4676                 1.6139
 Frc consts  --      4.7172                 1.6163                 1.7962
 IR Inten    --      1.9887                40.6128                46.8286

                     94                     95                     96
                      A                      A                      A
 Frequencies --   1393.2293              1416.6605              1418.1041
 Red. masses --      1.6206                 1.0924                 1.4507
 Frc consts  --      1.8534                 1.2917                 1.7188
 IR Inten    --     58.2464                12.3396                24.7149

                     97                     98                     99
                      A                      A                      A
 Frequencies --   1423.4530              1445.7979              1472.0728
 Red. masses --      1.7648                 1.0773                 1.9558
 Frc consts  --      2.1069                 1.3268                 2.4970
 IR Inten    --     11.8931                14.0565                11.0275

                    100                    101                    102
                      A                      A                      A
 Frequencies --   1472.7680              1483.8567              1485.9439
 Red. masses --      1.1216                 1.0502                 1.0965
 Frc consts  --      1.4334                 1.3624                 1.4264
 IR Inten    --      6.2362                 5.3294                 4.8229

                    103                    104                    105
                      A                      A                      A
 Frequencies --   1490.4729              1495.2577              1504.5941
 Red. masses --      1.3104                 1.2667                 1.2890
 Frc consts  --      1.7151                 1.6686                 1.7193
 IR Inten    --     23.3266                12.5317                 2.0017

                    106                    107                    108
                      A                      A                      A
 Frequencies --   1508.0399              1519.1922              1626.7442
 Red. masses --      1.0960                 2.1844                 5.9673
 Frc consts  --      1.4685                 2.9704                 9.3040
 IR Inten    --      7.2375                 7.1473                 0.2032

                    109                    110                    111
                      A                      A                      A
 Frequencies --   1646.7654              1771.4163              2894.0479
 Red. masses --      5.8247                12.0035                 1.0636
 Frc consts  --      9.3065                22.1921                 5.2488
 IR Inten    --      0.3996               242.0960               241.7989

                    112                    113                    114
                      A                      A                      A
 Frequencies --   2986.1190              3041.8358              3042.8021
 Red. masses --      1.0446                 1.0902                 1.0358
 Frc consts  --      5.4883                 5.9436                 5.6503
 IR Inten    --     33.9824                 8.3504                14.2037

                    115                    116                    117
                      A                      A                      A
 Frequencies --   3044.1123              3057.0264              3060.3215
 Red. masses --      1.0709                 1.0579                 1.0608
 Frc consts  --      5.8466                 5.8250                 5.8535
 IR Inten    --      8.3177                20.4787                23.4272

                    118                    119                    120
                      A                      A                      A
 Frequencies --   3067.4045              3067.8468              3088.6801
 Red. masses --      1.0776                 1.0696                 1.0830
 Frc consts  --      5.9738                 5.9311                 6.0876
 IR Inten    --      5.9454                15.7602                 2.8912

                    121                    122                    123
                      A                      A                      A
 Frequencies --   3103.2862              3113.2326              3120.0561
 Red. masses --      1.1076                 1.1031                 1.1011
 Frc consts  --      6.2848                 6.2990                 6.3156
 IR Inten    --      5.9496                11.6577                31.5271

                    124                    125                    126
                      A                      A                      A
 Frequencies --   3126.0913              3136.4252              3170.2950
 Red. masses --      1.1042                 1.1044                 1.0849
 Frc consts  --      6.3576                 6.4007                 6.4248
 IR Inten    --     13.1327                20.6029                 0.5659

                    127                    128                    129
                      A                      A                      A
 Frequencies --   3173.0187              3174.0601              3178.6140
 Red. masses --      1.1001                 1.0996                 1.0885
 Frc consts  --      6.5259                 6.5269                 6.4795
 IR Inten    --      6.0132                 4.2714                 4.0131

                    130                    131                    132
                      A                      A                      A
 Frequencies --   3187.9523              3197.8121              3224.3300
 Red. masses --      1.0932                 1.0982                 1.0922
 Frc consts  --      6.5462                 6.6168                 6.6901
 IR Inten    --     15.9488                13.0484                 3.1899

 - Thermochemistry -
 -------------------
 Temperature   298.150 Kelvin.  Pressure   1.00000 Atm.
 Atom     1 has atomic number  6 and mass  12.00000

 Molecular mass:   434.99839 amu.
 Principal axes and moments of inertia in atomic units:
                           1         2         3
     Eigenvalues --  7923.61527********************
           X            0.99776  -0.06521   0.01458
           Y            0.06541   0.99777  -0.01341
           Z           -0.01367   0.01433   0.99980
 This molecule is an asymmetric top.
 Rotational symmetry number  1.
 Warning -- assumption of classical behavior for rotation
           may cause significant error
 Rotational temperatures (Kelvin)      0.01093     0.00757     0.00669
 Rotational constants (GHZ):           0.22777     0.15770     0.13936
    1 imaginary frequencies ignored.
 Zero-point vibrational energy     940916.4 (Joules/Mol)
                                  224.88441 (Kcal/Mol)
 Warning -- explicit consideration of  41 degrees of freedom as
           vibrations may cause significant error
 Vibrational temperatures:     35.53    51.05    54.92    60.35    68.92
          (Kelvin)             82.18    97.08   100.06   121.39   130.83
                              141.50   148.45   165.99   173.73   196.84
                              207.93   225.93   245.72   276.83   283.48
                              326.75   350.55   363.24   368.48   394.07
                              418.38   444.79   468.95   482.83   517.47
                              519.20   552.31   577.05   592.72   603.91
                              632.74   686.71   713.88   775.59   800.32
                              852.72   905.90   916.07  1015.94  1020.66
                             1047.21  1107.37  1115.03  1161.82  1172.45
                             1201.30  1219.20  1241.42  1262.84  1283.29
                             1334.87  1341.19  1385.89  1414.04  1419.15
                             1438.07  1445.65  1446.51  1458.89  1465.62
                             1486.85  1508.64  1514.74  1529.85  1585.69
                             1610.67  1626.43  1634.99  1657.19  1678.02
                             1684.70  1688.30  1722.53  1731.60  1776.11
                             1795.18  1796.49  1847.75  1883.61  1891.94
                             1894.61  1900.53  1918.88  1934.90  1955.94
                             1967.09  1977.45  2004.55  2038.26  2040.34
                             2048.03  2080.18  2117.98  2118.98  2134.94
                             2137.94  2144.46  2151.34  2164.78  2169.73
                             2185.78  2340.52  2369.33  2548.67  4163.89
                             4296.36  4376.52  4377.91  4379.80  4398.38
                             4403.12  4413.31  4413.95  4443.92  4464.94
                             4479.25  4489.06  4497.75  4512.62  4561.35
                             4565.27  4566.76  4573.32  4586.75  4600.94
                             4639.09

 Zero-point correction=                           0.358376 (Hartree/Particle)
 Thermal correction to Energy=                    0.385445
 Thermal correction to Enthalpy=                  0.386389
 Thermal correction to Gibbs Free Energy=         0.296966
 Sum of electronic and zero-point Energies=          -3531.174356
 Sum of electronic and thermal Energies=             -3531.147288
 Sum of electronic and thermal Enthalpies=           -3531.146344
 Sum of electronic and thermal Free Energies=        -3531.235767

                     E (Thermal)             CV                S
                      KCal/Mol        Cal/Mol-Kelvin    Cal/Mol-Kelvin
 Total                  241.870             96.950            188.206
 Electronic               0.000              0.000              3.561
 Translational            0.889              2.981             44.100
 Rotational               0.889              2.981             35.417
 Vibrational            240.093             90.988            105.129
 Vibration     1          0.593              1.985              6.216
 Vibration     2          0.594              1.982              5.497
 Vibration     3          0.594              1.982              5.352
 Vibration     4          0.595              1.980              5.165
 Vibration     5          0.595              1.978              4.902
 Vibration     6          0.596              1.975              4.554
 Vibration     7          0.598              1.970              4.226
 Vibration     8          0.598              1.969              4.166
 Vibration     9          0.601              1.960              3.787
 Vibration    10          0.602              1.956              3.640
 Vibration    11          0.604              1.950              3.487
 Vibration    12          0.605              1.947              3.393
 Vibration    13          0.608              1.937              3.177
 Vibration    14          0.609              1.932              3.088
 Vibration    15          0.614              1.917              2.848
 Vibration    16          0.616              1.909              2.743
 Vibration    17          0.621              1.895              2.585
 Vibration    18          0.626              1.878              2.427
 Vibration    19          0.634              1.850              2.205
 Vibration    20          0.636              1.844              2.161
 Vibration    21          0.651              1.800              1.902
 Vibration    22          0.659              1.773              1.776
 Vibration    23          0.664              1.759              1.713
 Vibration    24          0.666              1.752              1.688
 Vibration    25          0.676              1.722              1.572
 Vibration    26          0.687              1.691              1.469
 Vibration    27          0.698              1.656              1.367
 Vibration    28          0.710              1.624              1.280
 Vibration    29          0.717              1.604              1.233
 Vibration    30          0.734              1.555              1.124
 Vibration    31          0.735              1.553              1.118
 Vibration    32          0.753              1.505              1.024
 Vibration    33          0.767              1.468              0.959
 Vibration    34          0.776              1.444              0.920
 Vibration    35          0.782              1.427              0.893
 Vibration    36          0.800              1.383              0.827
 Vibration    37          0.834              1.300              0.717
 Vibration    38          0.852              1.259              0.668
 Vibration    39          0.894              1.164              0.567
 Vibration    40          0.912              1.126              0.531
 Vibration    41          0.950              1.047              0.462

 Optimization completed.
    -- Stationary point found.
 Normal termination of Gaussian 16 at Thu Jun  3 01:55:51 2021.
