 Gaussian 16, Revision A.03,
 Gaussian 16:  ES64L-G16RevA.03 25-Dec-2016

 ----------------------------------------------------------------------
 #p opt=(calcfc,maxstep=3) freq=noraman b3lyp jul-cc-pvdz pop=cm5 empir
 icaldispersion=gd3bj
 ----------------------------------------------------------------------

 -----
 title
 -----
 Symbolic Z-matrix:
 Charge =  0 Multiplicity = 6

 SCF Done:  E(UB3LYP) =  -3531.52375513     A.U. after   25 cycles
 Optimization completed.
    -- Stationary point found.
 Normal termination of Gaussian 16 at Sun Jun 13 05:57:10 2021.

 ----------------------------------------------------------------------
 #P Geom=AllCheck Guess=TCheck SCRF=Check GenChk UB3LYP/Jul-CC-pVDZ Fre
 q
 ----------------------------------------------------------------------

 Structure from the checkpoint file:  "/scratch/kwaneu.2872112.bmbhpcps002/Gau-51005.chk"
 -----
 title
 -----
 Charge =  0 Multiplicity = 6

                         Standard orientation:
 ---------------------------------------------------------------------
 Center     Atomic      Atomic             Coordinates (Angstroms)
 Number     Number       Type             X           Y           Z
 ---------------------------------------------------------------------
      1          6           0       -1.708108    0.476266    2.020970
      2          6           0       -1.102805   -0.037346    0.867164
      3          6           0       -1.294284   -1.390557    0.560243
      4          6           0       -2.042057   -2.215358    1.400379
      5          6           0       -2.624901   -1.698537    2.560042
      6          6           0       -2.458749   -0.345598    2.863871
      7          6           0       -0.300321    0.832697   -0.112179
      8          6           0       -1.255170    1.584196   -1.158966
      9          6           0       -1.060224    3.097661   -0.974353
     10          6           0       -0.467920    3.286892    0.424693
     11          6           0        0.415942    2.010182    0.683587
     12          6           0        1.763989    2.379692    0.239322
     13          6           0        2.166228    2.465691   -1.144940
     14          8           0        0.624194    0.070058   -0.816894
     15         26           0        1.935499   -1.140033   -0.284365
     16         17           0        3.825454   -0.389070   -1.295299
     17          6           0        2.782243    2.600004    1.273513
     18         17           0        1.497624   -3.219002   -0.863154
     19         17           0        2.209568   -0.819706    1.917783
     20          1           0       -0.857741   -1.804438   -0.344023
     21          1           0       -2.160041   -3.269294    1.146854
     22          1           0       -3.204171   -2.343635    3.221669
     23          1           0       -2.914947    0.076308    3.759873
     24          1           0       -1.622131    1.529591    2.279926
     25          1           0       -0.935315    1.232523   -2.144646
     26          6           0       -2.705111    1.189267   -0.962971
     27          1           0       -0.389024    3.495765   -1.744138
     28          1           0       -2.009720    3.637685   -1.059313
     29          1           0        0.080462    4.232476    0.537346
     30          1           0       -1.256666    3.279018    1.185824
     31          1           0        0.454042    1.768897    1.748153
     32          1           0        2.361396    3.044533    2.184536
     33          1           0        3.070027    1.562717    1.563692
     34          1           0        3.669668    3.134274    0.921543
     35          1           0        2.893778    3.266369   -1.327351
     36          1           0        2.764043    1.507604   -1.271171
     37          1           0        1.367334    2.418068   -1.882287
     38          8           0       -2.975147    0.026070   -1.571843
     39          8           0       -3.511146    1.825971   -0.314159
     40          6           0       -4.253474   -0.584357   -1.249037
     41          6           0       -4.278241   -1.946984   -1.906825
     42          1           0       -4.327007   -0.649421   -0.155833
     43          1           0       -5.054615    0.073350   -1.611612
     44          1           0       -5.233891   -2.442706   -1.684718
     45          1           0       -4.176246   -1.860610   -2.997116
     46          1           0       -3.462637   -2.575655   -1.526225
 ---------------------------------------------------------------------

 SCF Done:  E(UB3LYP) =  -3531.52375513     A.U. after    1 cycles

 The electronic state is 6-A.
 Alpha  occ. eigenvalues -- -256.18136-101.50735-101.50498-101.49666 -30.17546
 Alpha  occ. eigenvalues --  -26.02912 -26.02792 -26.02630 -19.19999 -19.14767
 Alpha  occ. eigenvalues --  -19.14677 -10.33647 -10.32413 -10.28856 -10.24836
 Alpha  occ. eigenvalues --  -10.24649 -10.24627 -10.24370 -10.23971 -10.22123
 Alpha  occ. eigenvalues --  -10.21809 -10.20746 -10.20222 -10.19965 -10.19866
 Alpha  occ. eigenvalues --  -10.19613 -10.19241 -10.18977  -9.42425  -9.42180
 Alpha  occ. eigenvalues --   -9.41379  -7.18274  -7.18048  -7.18004  -7.17932
 Alpha  occ. eigenvalues --   -7.17736  -7.17711  -7.17244  -7.16943  -7.16911
 Alpha  occ. eigenvalues --   -3.65259  -2.42878  -2.42622  -2.42355  -1.11916
 Alpha  occ. eigenvalues --   -1.03253  -1.02377  -0.91612  -0.87111  -0.85571
 Alpha  occ. eigenvalues --   -0.79641  -0.78495  -0.78214  -0.77575  -0.77076
 Alpha  occ. eigenvalues --   -0.76983  -0.76535  -0.75548  -0.72849  -0.66770
 Alpha  occ. eigenvalues --   -0.65538  -0.62083  -0.61799  -0.60081  -0.58115
 Alpha  occ. eigenvalues --   -0.56797  -0.55700  -0.53851  -0.52356  -0.51629
 Alpha  occ. eigenvalues --   -0.50802  -0.50608  -0.48882  -0.48662  -0.47920
 Alpha  occ. eigenvalues --   -0.46701  -0.46314  -0.46046  -0.45800  -0.45664
 Alpha  occ. eigenvalues --   -0.45426  -0.44983  -0.44455  -0.44095  -0.43692
 Alpha  occ. eigenvalues --   -0.43083  -0.42904  -0.42153  -0.41746  -0.40579
 Alpha  occ. eigenvalues --   -0.40414  -0.40199  -0.39330  -0.38009  -0.37773
 Alpha  occ. eigenvalues --   -0.37113  -0.36666  -0.35921  -0.35852  -0.35495
 Alpha  occ. eigenvalues --   -0.34784  -0.32774  -0.32338  -0.31655  -0.30595
 Alpha  occ. eigenvalues --   -0.29663  -0.29363  -0.29090  -0.28782  -0.28604
 Alpha  occ. eigenvalues --   -0.27813  -0.27402  -0.26808  -0.26126  -0.25664
 Alpha virt. eigenvalues --   -0.15176  -0.03205  -0.02862  -0.02325  -0.01423
 Alpha virt. eigenvalues --   -0.01097  -0.00706  -0.00322   0.00519   0.00869
 Alpha virt. eigenvalues --    0.01400   0.01483   0.01917   0.02810   0.02846

  Beta  occ. eigenvalues -- -256.17949-101.50587-101.50326-101.49476 -30.08672
  Beta  occ. eigenvalues --  -25.95462 -25.95390 -25.95289 -19.19998 -19.14763
  Beta  occ. eigenvalues --  -19.13927 -10.33633 -10.32411 -10.28843 -10.24836
  Beta  occ. eigenvalues --  -10.24649 -10.24611 -10.24372 -10.23972 -10.22099
  Beta  occ. eigenvalues --  -10.21808 -10.20729 -10.20222 -10.19962 -10.19867
  Beta  occ. eigenvalues --  -10.19612 -10.19244 -10.18977  -9.42279  -9.42010
  Beta  occ. eigenvalues --   -9.41193  -7.17998  -7.17838  -7.17751  -7.17736
  Beta  occ. eigenvalues --   -7.17517  -7.17482  -7.16950  -7.16662  -7.16660
  Beta  occ. eigenvalues --   -3.44564  -2.20938  -2.20842  -2.20660  -1.11912
  Beta  occ. eigenvalues --   -1.03246  -1.00960  -0.91465  -0.87023  -0.85526
  Beta  occ. eigenvalues --   -0.79617  -0.78084  -0.77386  -0.77106  -0.76678
  Beta  occ. eigenvalues --   -0.76285  -0.75822  -0.75491  -0.72745  -0.66656
  Beta  occ. eigenvalues --   -0.65499  -0.62029  -0.61767  -0.59977  -0.57921
  Beta  occ. eigenvalues --   -0.56667  -0.55594  -0.53486  -0.51810  -0.51477
  Beta  occ. eigenvalues --   -0.50670  -0.50567  -0.48785  -0.47940  -0.47597
  Beta  occ. eigenvalues --   -0.46507  -0.45926  -0.45104  -0.44822  -0.44132
  Beta  occ. eigenvalues --   -0.43305  -0.43025  -0.42541  -0.41975  -0.40907
  Beta  occ. eigenvalues --   -0.40446  -0.40146  -0.39339  -0.37999  -0.37762
  Beta  occ. eigenvalues --   -0.37060  -0.36440  -0.35974  -0.35878  -0.35728
  Beta  occ. eigenvalues --   -0.35179  -0.33905  -0.33451  -0.31721  -0.31426
  Beta  occ. eigenvalues --   -0.31109  -0.30947  -0.30632  -0.30044  -0.29080
  Beta  occ. eigenvalues --   -0.28312  -0.27686  -0.27390  -0.26132  -0.25593
  Beta virt. eigenvalues --   -0.15269  -0.12160  -0.11945  -0.11198  -0.10599
  Beta virt. eigenvalues --   -0.09753  -0.03192  -0.02827  -0.02209  -0.01397
  Beta virt. eigenvalues --   -0.01057  -0.00701  -0.00272   0.00549   0.00873

 Mulliken charges and spin densities:
               1          2
     1  C   -0.158677  -0.001364
     2  C    2.234323   0.009096
     3  C   -0.519710   0.003534
     4  C    0.042762   0.009708
     5  C    0.219545   0.001504
     6  C   -0.107236   0.002427
     7  C   -1.012571  -0.064123
     8  C    0.961433   0.017454
     9  C    0.558513   0.001455
    10  C    0.464819  -0.000620
    11  C    0.985546   0.024102
    12  C   -0.918928   0.017487
    13  C    0.104929  -0.006332
    14  O   -0.689482   0.255598
    15  Fe   0.611286   4.052600
    16  Cl  -0.534134   0.191659
    17  C    0.406156  -0.005722
    18  Cl  -0.430396   0.263827
    19  Cl  -0.543176   0.216985
    20  H   -0.215436   0.003044
    21  H   -0.187227  -0.000124
    22  H   -0.183184   0.000007
    23  H   -0.178179   0.000081
    24  H   -0.263991  -0.000001
    25  H   -0.262598  -0.000040
    26  C    0.815661   0.001570
    27  H   -0.135942  -0.000055
    28  H   -0.121069   0.000486
    29  H   -0.163145   0.000699
    30  H   -0.058096  -0.000034
    31  H   -0.242884  -0.000298
    32  H    0.023857   0.000277
    33  H    0.157443   0.001130
    34  H   -0.018264   0.000015
    35  H   -0.020528  -0.000336
    36  H    0.220408   0.002225
    37  H    0.036139   0.000224
    38  O   -0.674269   0.000100
    39  O   -0.624298   0.001511
    40  C    0.409383   0.000149
    41  C    0.106289   0.000068
    42  H   -0.026574  -0.000006
    43  H   -0.072876   0.000003
    44  H   -0.017004   0.000007
    45  H    0.003169   0.000006
    46  H    0.018215   0.000018
 Sum of Mulliken charges =  -0.00000   5.00000

 Dipole moment (field-independent basis, Debye):
    X=             -2.6925    Y=              8.9832    Z=              0.9282  Tot=              9.4239
 Quadrupole moment (field-independent basis, Debye-Ang):
   XX=           -183.5376   YY=           -163.5705   ZZ=           -174.9267
   XY=             31.1486   XZ=              4.1422   YZ=             -0.4164

  Exact polarizability: 314.022  15.570 310.768 -22.137   6.550 257.533
 Approx polarizability: 447.793  10.207 496.838 -48.091  26.079 442.971

                      1                      2                      3
                      A                      A                      A
 Frequencies --     12.2604                25.4764                32.7049
 Red. masses --      4.3816                 7.0036                 6.0307
 Frc consts  --      0.0004                 0.0027                 0.0038
 IR Inten    --      0.7454                 0.4674                 1.9244

                      4                      5                      6
                      A                      A                      A
 Frequencies --     53.8832                56.4218                68.3547
 Red. masses --      5.2940                 4.2566                 5.7804
 Frc consts  --      0.0091                 0.0080                 0.0159
 IR Inten    --      1.6189                 0.3226                 0.4659

                      7                      8                      9
                      A                      A                      A
 Frequencies --     76.5735                82.9951                88.0429
 Red. masses --      5.0978                 2.5743                 9.0232
 Frc consts  --      0.0176                 0.0104                 0.0412
 IR Inten    --      0.7452                 0.3368                 0.0559

                     10                     11                     12
                      A                      A                      A
 Frequencies --    100.1723               106.7480               112.0762
 Red. masses --      5.2819                 7.7946                 9.5441
 Frc consts  --      0.0312                 0.0523                 0.0706
 IR Inten    --      1.1391                 1.0921                 1.7153

                     13                     14                     15
                      A                      A                      A
 Frequencies --    120.6370               129.7378               133.3159
 Red. masses --      7.7892                 5.7020                 7.5189
 Frc consts  --      0.0668                 0.0565                 0.0787
 IR Inten    --      3.1675                 2.9130                 9.1624

                     16                     17                     18
                      A                      A                      A
 Frequencies --    153.1367               156.7383               184.5190
 Red. masses --      3.5762                 5.3237                 3.1119
 Frc consts  --      0.0494                 0.0771                 0.0624
 IR Inten    --      9.4464                 1.4628                 3.9131

                     19                     20                     21
                      A                      A                      A
 Frequencies --    195.9159               204.1828               219.8822
 Red. masses --      1.6780                 2.2108                 2.9866
 Frc consts  --      0.0379                 0.0543                 0.0851
 IR Inten    --      8.4830                 7.0785                 1.0263

                     22                     23                     24
                      A                      A                      A
 Frequencies --    224.3675               250.4246               269.4695
 Red. masses --      2.0181                 2.7537                 1.9713
 Frc consts  --      0.0599                 0.1017                 0.0843
 IR Inten    --     22.6897                 5.6984                 3.3437

                     25                     26                     27
                      A                      A                      A
 Frequencies --    278.9089               297.6693               300.9869
 Red. masses --      2.6540                 1.7326                 5.3624
 Frc consts  --      0.1216                 0.0905                 0.2862
 IR Inten    --      1.3223                 5.1977                 1.5482

                     28                     29                     30
                      A                      A                      A
 Frequencies --    324.4044               336.2745               350.8743
 Red. masses --      8.5503                 6.4775                 2.9113
 Frc consts  --      0.5302                 0.4316                 0.2112
 IR Inten    --     17.2760                46.1583                22.2108

                     31                     32                     33
                      A                      A                      A
 Frequencies --    355.2635               365.4370               397.3837
 Red. masses --      4.9783                 4.0837                18.7527
 Frc consts  --      0.3702                 0.3213                 1.7448
 IR Inten    --     38.0875                 2.7537                75.7085

                     34                     35                     36
                      A                      A                      A
 Frequencies --    412.1120               415.9463               430.1575
 Red. masses --      3.7517                 4.2123                 3.9061
 Frc consts  --      0.3754                 0.4294                 0.4258
 IR Inten    --      2.9284                11.1545                10.2694

                     37                     38                     39
                      A                      A                      A
 Frequencies --    449.9832               482.3303               524.4084
 Red. masses --      3.1314                 2.7188                 2.4674
 Frc consts  --      0.3736                 0.3727                 0.3998
 IR Inten    --      6.7198                 7.0225                 7.6065

                     40                     41                     42
                      A                      A                      A
 Frequencies --    556.6553               626.8497               632.0742
 Red. masses --      3.1755                 5.5039                 4.0998
 Frc consts  --      0.5797                 1.2742                 0.9651
 IR Inten    --     19.6708                15.2621                 9.5352

                     43                     44                     45
                      A                      A                      A
 Frequencies --    637.0248               691.1804               699.2935
 Red. masses --      3.3028                 5.6125                 4.0823
 Frc consts  --      0.7897                 1.5798                 1.1762
 IR Inten    --     14.7639                 6.7150                 0.9662

                     46                     47                     48
                      A                      A                      A
 Frequencies --    704.9750               736.6184               745.3747
 Red. masses --      1.5568                 1.4623                 2.7868
 Frc consts  --      0.4558                 0.4675                 0.9122
 IR Inten    --     48.6446                36.2491                 6.9346

                     49                     50                     51
                      A                      A                      A
 Frequencies --    803.3983               806.7908               808.9448
 Red. masses --      1.7732                 1.9258                 2.5072
 Frc consts  --      0.6743                 0.7385                 0.9667
 IR Inten    --     26.4300                 4.3759                24.7313

                     52                     53                     54
                      A                      A                      A
 Frequencies --    818.2384               840.8663               850.2104
 Red. masses --      3.0728                 1.2650                 2.6689
 Frc consts  --      1.2121                 0.5270                 1.1367
 IR Inten    --      4.7028                 1.0370                15.9589

                     55                     56                     57
                      A                      A                      A
 Frequencies --    872.6377               885.0156               913.0152
 Red. masses --      2.6864                 3.1832                 2.2343
 Frc consts  --      1.2053                 1.4690                 1.0974
 IR Inten    --      5.0760                 5.1194                76.2138

                     58                     59                     60
                      A                      A                      A
 Frequencies --    927.6644               950.0072               971.6443
 Red. masses --      1.7277                 3.6180                 2.8141
 Frc consts  --      0.8760                 1.9238                 1.5653
 IR Inten    --     10.7142                29.3780                10.0854

                     61                     62                     63
                      A                      A                      A
 Frequencies --    978.5540               980.7281               998.7901
 Red. masses --      1.5671                 1.8479                 1.3685
 Frc consts  --      0.8841                 1.0472                 0.8043
 IR Inten    --      1.5155                 1.5085                 8.4715

                     64                     65                     66
                      A                      A                      A
 Frequencies --   1010.0340              1013.1590              1016.4329
 Red. masses --      2.4207                 4.9627                 1.5745
 Frc consts  --      1.4550                 3.0014                 0.9584
 IR Inten    --     26.2087                 1.4983                15.6435

                     67                     68                     69
                      A                      A                      A
 Frequencies --   1033.8210              1045.4874              1056.2235
 Red. masses --      2.1168                 2.8990                 2.2661
 Frc consts  --      1.3330                 1.8669                 1.4895
 IR Inten    --      9.8604                16.2872                 4.2323

                     70                     71                     72
                      A                      A                      A
 Frequencies --   1078.1552              1088.9176              1097.1104
 Red. masses --      1.9532                 2.2325                 3.1265
 Frc consts  --      1.3377                 1.5596                 2.2172
 IR Inten    --     64.7857                62.5425                78.9190

                     73                     74                     75
                      A                      A                      A
 Frequencies --   1119.2886              1134.2003              1154.5914
 Red. masses --      1.7165                 2.1247                 1.3370
 Frc consts  --      1.2670                 1.6104                 1.0501
 IR Inten    --     18.7982                14.8194                45.0785

                     76                     77                     78
                      A                      A                      A
 Frequencies --   1170.4268              1174.5037              1183.0356
 Red. masses --      1.5544                 1.0850                 1.4415
 Frc consts  --      1.2546                 0.8818                 1.1887
 IR Inten    --      3.9300                 0.9087                86.3976

                     79                     80                     81
                      A                      A                      A
 Frequencies --   1189.0253              1209.6200              1222.4893
 Red. masses --      2.1109                 1.1360                 2.9362
 Frc consts  --      1.7583                 0.9793                 2.5854
 IR Inten    --     40.6265                 2.7834               157.1476

                     82                     83                     84
                      A                      A                      A
 Frequencies --   1243.1513              1254.7959              1276.0138
 Red. masses --      1.5315                 1.4190                 1.6589
 Frc consts  --      1.3945                 1.3163                 1.5914
 IR Inten    --     82.2065                36.6950                12.0890

                     85                     86                     87
                      A                      A                      A
 Frequencies --   1286.7027              1300.1821              1308.9209
 Red. masses --      1.1000                 1.4716                 1.2136
 Frc consts  --      1.0730                 1.4657                 1.2251
 IR Inten    --      0.7118                19.8373                57.8074

                     88                     89                     90
                      A                      A                      A
 Frequencies --   1330.0181              1338.6899              1338.7412
 Red. masses --      1.6362                 1.2795                 1.3766
 Frc consts  --      1.7053                 1.3509                 1.4536
 IR Inten    --     13.6092                20.7389                 8.1703

                     91                     92                     93
                      A                      A                      A
 Frequencies --   1351.2671              1360.4812              1365.5057
 Red. masses --      1.4034                 2.9006                 1.3817
 Frc consts  --      1.5098                 3.1632                 1.5180
 IR Inten    --     52.2358                 0.3648                42.5977

                     94                     95                     96
                      A                      A                      A
 Frequencies --   1386.3963              1392.8537              1419.0352
 Red. masses --      1.2320                 1.5435                 1.1737
 Frc consts  --      1.3952                 1.7643                 1.3924
 IR Inten    --     23.4726                63.6414                11.3591

                     97                     98                     99
                      A                      A                      A
 Frequencies --   1420.6774              1438.1282              1471.1870
 Red. masses --      1.5385                 1.5862                 2.0572
 Frc consts  --      1.8295                 1.9329                 2.6234
 IR Inten    --      4.3941                68.5256                 5.8524

                    100                    101                    102
                      A                      A                      A
 Frequencies --   1475.1965              1476.9797              1486.0805
 Red. masses --      1.0401                 1.1561                 1.0529
 Frc consts  --      1.3335                 1.4859                 1.3700
 IR Inten    --      3.8148                 5.1409                 0.4549

                    103                    104                    105
                      A                      A                      A
 Frequencies --   1489.5063              1496.4310              1505.3080
 Red. masses --      1.1478                 1.1882                 1.0868
 Frc consts  --      1.5004                 1.5676                 1.4510
 IR Inten    --     15.9244                23.8333                 9.5024

                    106                    107                    108
                      A                      A                      A
 Frequencies --   1506.4883              1523.2198              1628.8791
 Red. masses --      1.5579                 2.1636                 5.8111
 Frc consts  --      2.0831                 2.9577                 9.0842
 IR Inten    --     45.6108                 9.8366                 0.6544

                    109                    110                    111
                      A                      A                      A
 Frequencies --   1649.2062              1765.6844              2596.0438
 Red. masses --      5.8633                11.3160                 1.0705
 Frc consts  --      9.3960                20.7859                 4.2509
 IR Inten    --      0.0520               170.9850               830.2400

                    112                    113                    114
                      A                      A                      A
 Frequencies --   2900.9291              3041.2417              3054.1816
 Red. masses --      1.0620                 1.0351                 1.0640
 Frc consts  --      5.2655                 5.6408                 5.8477
 IR Inten    --    101.8304                15.6839                18.7742

                    115                    116                    117
                      A                      A                      A
 Frequencies --   3061.5031              3076.2304              3083.5529
 Red. masses --      1.0583                 1.0638                 1.0664
 Frc consts  --      5.8441                 5.9310                 5.9742
 IR Inten    --     15.7552                22.6930                 0.9114

                    118                    119                    120
                      A                      A                      A
 Frequencies --   3088.9829              3107.0350              3109.9640
 Red. masses --      1.0648                 1.1066                 1.0987
 Frc consts  --      5.9865                 6.2942                 6.2610
 IR Inten    --      2.8568                 2.7982                 7.2299

                    121                    122                    123
                      A                      A                      A
 Frequencies --   3114.0449              3118.3263              3127.6945
 Red. masses --      1.0875                 1.1012                 1.1009
 Frc consts  --      6.2136                 6.3092                 6.3449
 IR Inten    --      1.4664                17.7742                 6.1815

                    124                    125                    126
                      A                      A                      A
 Frequencies --   3131.7633              3132.2808              3166.6214
 Red. masses --      1.0877                 1.1057                 1.1060
 Frc consts  --      6.2853                 6.3916                 6.5341
 IR Inten    --      1.5900                36.1364                 8.2218

                    127                    128                    129
                      A                      A                      A
 Frequencies --   3170.2819              3181.1835              3192.6535
 Red. masses --      1.0850                 1.0897                 1.0944
 Frc consts  --      6.4251                 6.4971                 6.5724
 IR Inten    --      0.0412                 8.2504                21.6264

                    130                    131                    132
                      A                      A                      A
 Frequencies --   3202.1758              3221.5839              3230.1919
 Red. masses --      1.0950                 1.1001                 1.0920
 Frc consts  --      6.6152                 6.7269                 6.7134
 IR Inten    --      9.7208                 1.3732                 3.1520

 - Thermochemistry -
 -------------------
 Temperature   298.150 Kelvin.  Pressure   1.00000 Atm.
 Atom     1 has atomic number  6 and mass  12.00000

 Molecular mass:   434.99839 amu.
 Principal axes and moments of inertia in atomic units:
                           1         2         3
     Eigenvalues --  7649.50543********************
           X            0.99702   0.07627   0.01136
           Y           -0.07632   0.99707   0.00419
           Z           -0.01100  -0.00505   0.99993
 This molecule is an asymmetric top.
 Rotational symmetry number  1.
 Warning -- assumption of classical behavior for rotation
           may cause significant error
 Rotational temperatures (Kelvin)      0.01132     0.00740     0.00620
 Rotational constants (GHZ):           0.23593     0.15409     0.12910
 Zero-point vibrational energy     942701.9 (Joules/Mol)
                                  225.31115 (Kcal/Mol)
 Warning -- explicit consideration of  40 degrees of freedom as
           vibrations may cause significant error
 Vibrational temperatures:     17.64    36.65    47.06    77.53    81.18
          (Kelvin)             98.35   110.17   119.41   126.67   144.13
                              153.59   161.25   173.57   186.66   191.81
                              220.33   225.51   265.48   281.88   293.77
                              316.36   322.81   360.31   387.71   401.29
                              428.28   433.05   466.75   483.82   504.83
                              511.14   525.78   571.75   592.94   598.45
                              618.90   647.43   693.97   754.51   800.90
                              901.90   909.41   916.54   994.45  1006.13
                             1014.30  1059.83  1072.43  1155.91  1160.79
                             1163.89  1177.26  1209.82  1223.26  1255.53
                             1273.34  1313.63  1334.70  1366.85  1397.98
                             1407.92  1411.05  1437.04  1453.21  1457.71
                             1462.42  1487.44  1504.22  1519.67  1551.22
                             1566.71  1578.50  1610.41  1631.86  1661.20
                             1683.98  1689.85  1702.12  1710.74  1740.37
                             1758.89  1788.62  1805.37  1835.90  1851.28
                             1870.67  1883.25  1913.60  1926.08  1926.15
                             1944.17  1957.43  1964.66  1994.72  2004.01
                             2041.68  2044.04  2069.15  2116.71  2122.48
                             2125.04  2138.14  2143.07  2153.03  2165.80
                             2167.50  2191.57  2343.59  2372.84  2540.43
                             3735.13  4173.79  4375.67  4394.29  4404.82
                             4426.01  4436.54  4444.36  4470.33  4474.54
                             4480.42  4486.58  4500.05  4505.91  4506.65
                             4556.06  4561.33  4577.01  4593.52  4607.22
                             4635.14  4647.53

 Zero-point correction=                           0.359056 (Hartree/Particle)
 Thermal correction to Energy=                    0.386184
 Thermal correction to Enthalpy=                  0.387128
 Thermal correction to Gibbs Free Energy=         0.297551
 Sum of electronic and zero-point Energies=          -3531.164699
 Sum of electronic and thermal Energies=             -3531.137571
 Sum of electronic and thermal Enthalpies=           -3531.136627
 Sum of electronic and thermal Free Energies=        -3531.226204

                     E (Thermal)             CV                S
                      KCal/Mol        Cal/Mol-Kelvin    Cal/Mol-Kelvin
 Total                  242.334             98.109            188.532
 Electronic               0.000              0.000              3.561
 Translational            0.889              2.981             44.100
 Rotational               0.889              2.981             35.481
 Vibrational            240.557             92.147            105.390
 Vibration     1          0.593              1.987              7.606
 Vibration     2          0.593              1.985              6.154
 Vibration     3          0.594              1.983              5.658
 Vibration     4          0.596              1.976              4.670
 Vibration     5          0.596              1.975              4.579
 Vibration     6          0.598              1.969              4.200
 Vibration     7          0.599              1.965              3.977
 Vibration     8          0.600              1.961              3.819
 Vibration     9          0.601              1.958              3.703
 Vibration    10          0.604              1.949              3.451
 Vibration    11          0.606              1.944              3.327
 Vibration    12          0.607              1.939              3.233
 Vibration    13          0.609              1.932              3.090
 Vibration    14          0.612              1.924              2.950
 Vibration    15          0.613              1.920              2.898
 Vibration    16          0.619              1.899              2.633
 Vibration    17          0.620              1.895              2.589
 Vibration    18          0.631              1.861              2.282
 Vibration    19          0.636              1.846              2.171
 Vibration    20          0.640              1.834              2.095
 Vibration    21          0.647              1.811              1.960
 Vibration    22          0.649              1.804              1.924
 Vibration    23          0.663              1.762              1.728
 Vibration    24          0.674              1.729              1.600
 Vibration    25          0.679              1.713              1.540
 Vibration    26          0.691              1.678              1.430
 Vibration    27          0.693              1.672              1.411
 Vibration    28          0.709              1.627              1.288
 Vibration    29          0.717              1.603              1.230
 Vibration    30          0.728              1.573              1.162
 Vibration    31          0.731              1.564              1.143
 Vibration    32          0.739              1.543              1.099
 Vibration    33          0.764              1.476              0.972
 Vibration    34          0.776              1.444              0.919
 Vibration    35          0.779              1.436              0.906
 Vibration    36          0.791              1.405              0.858
 Vibration    37          0.809              1.361              0.796
 Vibration    38          0.839              1.289              0.704
 Vibration    39          0.879              1.196              0.600
 Vibration    40          0.912              1.125              0.531

 Optimization completed.
    -- Stationary point found.
 Normal termination of Gaussian 16 at Sun Jun 13 10:02:04 2021.
