 Gaussian 16, Revision A.03,
 Gaussian 16:  ES64L-G16RevA.03 25-Dec-2016

 ----------------------------------------------------------------------
 #p opt=(maxstep=3) freq=noraman ub3lyp empiricaldispersion=gd3bj jul-c
 c-pvdz pop=cm5
 ----------------------------------------------------------------------

 -----
 title
 -----
 Symbolic Z-matrix:
 Charge =  0 Multiplicity = 6

 SCF Done:  E(UB3LYP) =  -3531.52901066     A.U. after   26 cycles
 SCF Done:  E(UB3LYP) =  -3531.52901200     A.U. after    9 cycles
 SCF Done:  E(UB3LYP) =  -3531.52901128     A.U. after    9 cycles
 SCF Done:  E(UB3LYP) =  -3531.52901081     A.U. after    9 cycles
 SCF Done:  E(UB3LYP) =  -3531.52901085     A.U. after    8 cycles
 Optimization completed.
    -- Stationary point found.
 Normal termination of Gaussian 16 at Tue Jun 15 14:12:54 2021.

 ----------------------------------------------------------------------
 #P Geom=AllCheck Guess=TCheck SCRF=Check GenChk UB3LYP/Jul-CC-pVDZ Fre
 q
 ----------------------------------------------------------------------

 Structure from the checkpoint file:  "/scratch/kwaneu.2872754.bmbhpcps002/Gau-58046.chk"
 -----
 title
 -----
 Charge =  0 Multiplicity = 6

                         Standard orientation:
 ---------------------------------------------------------------------
 Center     Atomic      Atomic             Coordinates (Angstroms)
 Number     Number       Type             X           Y           Z
 ---------------------------------------------------------------------
      1          6           0       -2.697473   -1.334380   -1.209510
      2          6           0       -1.837773   -0.387899   -0.639913
      3          6           0       -1.956208    0.950993   -1.037594
      4          6           0       -2.890829    1.327158   -2.001897
      5          6           0       -3.734499    0.373789   -2.578385
      6          6           0       -3.636852   -0.958836   -2.174166
      7          6           0       -0.812148   -0.719301    0.450109
      8          6           0       -1.496593   -0.516347    1.880170
      9          6           0       -1.516007   -1.876026    2.590359
     10          6           0       -1.290063   -2.940556    1.507861
     11          6           0       -0.411873   -2.251620    0.406492
     12          6           0        0.998276   -2.545088    0.719197
     13          6           0        1.730155   -1.949197    1.809028
     14          8           0        0.316394    0.085522    0.338698
     15         26           0        1.451936    0.549333   -1.049640
     16         17           0        3.500052    0.093123   -0.199921
     17          6           0        1.715267   -3.427109   -0.207499
     18         17           0        1.234158    2.675428   -1.601010
     19         17           0        1.057610   -0.934577   -2.679744
     20          1           0       -1.304753    1.700141   -0.596327
     21          1           0       -2.950513    2.371590   -2.309364
     22          1           0       -4.459520    0.666034   -3.338815
     23          1           0       -4.286357   -1.715452   -2.616073
     24          1           0       -2.650083   -2.384694   -0.925423
     25          1           0       -2.509629   -0.141169    1.709106
     26          6           0       -0.727822    0.554593    2.630856
     27          1           0       -0.723618   -1.904128    3.346743
     28          1           0       -2.462246   -2.050914    3.117759
     29          1           0       -0.844064   -3.861927    1.906942
     30          1           0       -2.230394   -3.228645    1.022559
     31          1           0       -0.630783   -2.657517   -0.583707
     32          1           0        1.075500   -4.231993   -0.593243
     33          1           0        1.902476   -2.767446   -1.087812
     34          1           0        2.670078   -3.799406    0.174262
     35          1           0        2.491333   -2.620969    2.225061
     36          1           0        2.332313   -1.168844    1.245617
     37          1           0        1.158076   -1.397384    2.556411
     38          8           0       -1.074752    1.772431    2.206185
     39          8           0        0.117238    0.335119    3.478037
     40          6           0       -0.223302    2.875053    2.626887
     41          6           0       -0.568212    4.066467    1.759681
     42          1           0       -0.405638    3.060822    3.694274
     43          1           0        0.820240    2.560643    2.503170
     44          1           0        0.033802    4.930434    2.074901
     45          1           0       -0.342219    3.856195    0.706084
     46          1           0       -1.630563    4.329678    1.856583
 ---------------------------------------------------------------------

 SCF Done:  E(UB3LYP) =  -3531.52901085     A.U. after    2 cycles

 The electronic state is 6-A.
 Alpha  occ. eigenvalues -- -256.18070-101.50576-101.50475-101.49761 -30.17487
 Alpha  occ. eigenvalues --  -26.02841 -26.02726 -26.02587 -19.19827 -19.14885
 Alpha  occ. eigenvalues --  -19.14711 -10.33513 -10.32581 -10.28754 -10.24539
 Alpha  occ. eigenvalues --  -10.24484 -10.24460 -10.24322 -10.23062 -10.22047
 Alpha  occ. eigenvalues --  -10.21673 -10.20911 -10.20386 -10.20145 -10.19832
 Alpha  occ. eigenvalues --  -10.19677 -10.19232 -10.18211  -9.42258  -9.42152
 Alpha  occ. eigenvalues --   -9.41465  -7.18112  -7.18018  -7.17828  -7.17774
 Alpha  occ. eigenvalues --   -7.17712  -7.17685  -7.17329  -7.17026  -7.16998
 Alpha  occ. eigenvalues --   -3.65226  -2.42831  -2.42579  -2.42354  -1.11878
 Alpha  occ. eigenvalues --   -1.03269  -1.02610  -0.91320  -0.87149  -0.85505
 Alpha  occ. eigenvalues --   -0.79422  -0.78307  -0.78020  -0.77521  -0.77123
 Alpha  occ. eigenvalues --   -0.76805  -0.76281  -0.75575  -0.72847  -0.66769
 Alpha  occ. eigenvalues --   -0.65292  -0.62090  -0.61665  -0.59793  -0.57630
 Alpha  occ. eigenvalues --   -0.56822  -0.55495  -0.54084  -0.52192  -0.51553
 Alpha  occ. eigenvalues --   -0.50724  -0.50625  -0.48665  -0.48514  -0.47995
 Alpha  occ. eigenvalues --   -0.46669  -0.46066  -0.46026  -0.45616  -0.45503
 Alpha  occ. eigenvalues --   -0.45374  -0.44911  -0.44269  -0.43994  -0.43568
 Alpha  occ. eigenvalues --   -0.43076  -0.42665  -0.42214  -0.41465  -0.40419
 Alpha  occ. eigenvalues --   -0.39852  -0.39807  -0.38894  -0.37969  -0.37713
 Alpha  occ. eigenvalues --   -0.36986  -0.36282  -0.35981  -0.35699  -0.35335
 Alpha  occ. eigenvalues --   -0.34852  -0.32847  -0.32327  -0.31383  -0.30627
 Alpha  occ. eigenvalues --   -0.29422  -0.29289  -0.29034  -0.28838  -0.28765
 Alpha  occ. eigenvalues --   -0.27833  -0.27417  -0.27036  -0.26326  -0.25543
 Alpha virt. eigenvalues --   -0.15056  -0.03279  -0.03048  -0.02460  -0.01274
 Alpha virt. eigenvalues --   -0.00731  -0.00608  -0.00229   0.00701   0.00939
 Alpha virt. eigenvalues --    0.01423   0.01818   0.02037   0.02658   0.03182

  Beta  occ. eigenvalues -- -256.17882-101.50423-101.50302-101.49578 -30.08607
  Beta  occ. eigenvalues --  -25.95392 -25.95318 -25.95234 -19.19824 -19.14884
  Beta  occ. eigenvalues --  -19.13951 -10.33500 -10.32582 -10.28739 -10.24523
  Beta  occ. eigenvalues --  -10.24484 -10.24461 -10.24323 -10.23062 -10.22022
  Beta  occ. eigenvalues --  -10.21672 -10.20896 -10.20385 -10.20143 -10.19833
  Beta  occ. eigenvalues --  -10.19676 -10.19234 -10.18210  -9.42108  -9.41982
  Beta  occ. eigenvalues --   -9.41286  -7.17830  -7.17722  -7.17654  -7.17570
  Beta  occ. eigenvalues --   -7.17491  -7.17454  -7.17042  -7.16761  -7.16755
  Beta  occ. eigenvalues --   -3.44519  -2.20885  -2.20783  -2.20644  -1.11869
  Beta  occ. eigenvalues --   -1.03258  -1.01185  -0.91168  -0.87062  -0.85457
  Beta  occ. eigenvalues --   -0.79395  -0.77764  -0.77259  -0.76990  -0.76511
  Beta  occ. eigenvalues --   -0.76107  -0.75889  -0.75543  -0.72727  -0.66673
  Beta  occ. eigenvalues --   -0.65251  -0.62046  -0.61632  -0.59697  -0.57415
  Beta  occ. eigenvalues --   -0.56628  -0.55332  -0.53611  -0.51801  -0.51382
  Beta  occ. eigenvalues --   -0.50612  -0.50468  -0.48507  -0.47942  -0.47687
  Beta  occ. eigenvalues --   -0.46447  -0.45541  -0.44736  -0.44465  -0.44229
  Beta  occ. eigenvalues --   -0.43543  -0.42717  -0.42582  -0.41742  -0.40503
  Beta  occ. eigenvalues --   -0.39958  -0.39822  -0.38875  -0.37959  -0.37715
  Beta  occ. eigenvalues --   -0.36786  -0.36128  -0.35946  -0.35922  -0.35591
  Beta  occ. eigenvalues --   -0.35216  -0.33821  -0.33453  -0.31524  -0.31320
  Beta  occ. eigenvalues --   -0.31105  -0.30925  -0.30570  -0.30212  -0.29321
  Beta  occ. eigenvalues --   -0.28327  -0.27703  -0.27498  -0.26314  -0.25498
  Beta virt. eigenvalues --   -0.15119  -0.12063  -0.11897  -0.11128  -0.10595
  Beta virt. eigenvalues --   -0.09644  -0.03253  -0.03034  -0.02376  -0.01264
  Beta virt. eigenvalues --   -0.00713  -0.00577  -0.00178   0.00726   0.00947

 Mulliken charges and spin densities:
               1          2
     1  C   -0.327601  -0.000123
     2  C    3.286975   0.007697
     3  C   -0.524118   0.000351
     4  C    0.085625   0.005577
     5  C    0.237184   0.000791
     6  C   -0.153769   0.000144
     7  C   -2.392464  -0.017829
     8  C    0.675293   0.014898
     9  C    0.523616  -0.000719
    10  C    0.619123  -0.000518
    11  C    1.247401   0.014875
    12  C   -0.534364   0.016069
    13  C    0.024817  -0.008405
    14  O   -0.550598   0.251092
    15  Fe   0.628496   4.052158
    16  Cl  -0.536300   0.199358
    17  C    0.358531  -0.005064
    18  Cl  -0.446347   0.253664
    19  Cl  -0.544521   0.217261
    20  H   -0.289427  -0.000730
    21  H   -0.182023  -0.000082
    22  H   -0.183398   0.000009
    23  H   -0.182747   0.000077
    24  H   -0.231053   0.000012
    25  H   -0.228156   0.000727
    26  C    0.688780  -0.007552
    27  H   -0.054654  -0.000101
    28  H   -0.147339   0.000492
    29  H   -0.144950   0.000550
    30  H   -0.116587  -0.000079
    31  H   -0.235073  -0.000411
    32  H    0.024396   0.000309
    33  H    0.164517   0.001354
    34  H   -0.019205   0.000022
    35  H   -0.025854  -0.000249
    36  H    0.242092   0.001603
    37  H    0.096217   0.000347
    38  O   -0.707308  -0.000215
    39  O   -0.576899   0.000853
    40  C    0.399237   0.001937
    41  C    0.100300   0.000104
    42  H   -0.066141   0.000099
    43  H   -0.031270  -0.000093
    44  H   -0.026481   0.000014
    45  H    0.049181  -0.000277
    46  H    0.006867   0.000005
 Sum of Mulliken charges =  -0.00000   5.00000

 Dipole moment (field-independent basis, Debye):
    X=             -4.4350    Y=             -7.4431    Z=              4.3860  Tot=              9.7111
 Quadrupole moment (field-independent basis, Debye-Ang):
   XX=           -180.0831   YY=           -150.1078   ZZ=           -187.3169
   XY=             -8.2760   XZ=              7.3756   YZ=             -1.1266

  Exact polarizability: 296.494   2.490 307.924  23.468 -13.341 271.788
 Approx polarizability: 454.505  12.914 490.043  45.851 -19.789 427.526

                      1                      2                      3
                      A                      A                      A
 Frequencies --     24.5098                34.8918                38.0491
 Red. masses --      7.4185                 7.0862                 4.6345
 Frc consts  --      0.0026                 0.0051                 0.0040
 IR Inten    --      0.2457                 0.8951                 0.2823

                      4                      5                      6
                      A                      A                      A
 Frequencies --     48.5676                55.4116                60.7515
 Red. masses --      3.4456                 3.7410                 4.6648
 Frc consts  --      0.0048                 0.0068                 0.0101
 IR Inten    --      0.1374                 0.5502                 2.7269

                      7                      8                      9
                      A                      A                      A
 Frequencies --     72.0251                75.3647                85.6922
 Red. masses --      4.7403                 2.8361                11.3850
 Frc consts  --      0.0145                 0.0095                 0.0493
 IR Inten    --      0.4963                 1.0759                 0.6024

                     10                     11                     12
                      A                      A                      A
 Frequencies --    101.8630               107.9961               111.7797
 Red. masses --      7.8063                12.7468                 7.9019
 Frc consts  --      0.0477                 0.0876                 0.0582
 IR Inten    --      0.2489                 0.4972                 2.2377

                     13                     14                     15
                      A                      A                      A
 Frequencies --    113.5345               127.0616               131.8913
 Red. masses --      7.9659                 6.8689                10.5604
 Frc consts  --      0.0605                 0.0653                 0.1082
 IR Inten    --      2.9613                15.2362                 1.8026

                     16                     17                     18
                      A                      A                      A
 Frequencies --    151.6755               159.3461               192.0166
 Red. masses --      4.4448                 3.8555                 1.5617
 Frc consts  --      0.0602                 0.0577                 0.0339
 IR Inten    --      2.7473                 3.6327                12.9606

                     19                     20                     21
                      A                      A                      A
 Frequencies --    196.6203               201.7613               221.4498
 Red. masses --      2.7566                 2.6300                 1.7489
 Frc consts  --      0.0628                 0.0631                 0.0505
 IR Inten    --      1.5749                 1.6481                20.8200

                     22                     23                     24
                      A                      A                      A
 Frequencies --    230.8861               248.4435               261.1604
 Red. masses --      4.3578                 3.0760                 1.8572
 Frc consts  --      0.1369                 0.1119                 0.0746
 IR Inten    --      0.1796                 2.0806                 5.0966

                     25                     26                     27
                      A                      A                      A
 Frequencies --    276.1665               290.8624               303.2260
 Red. masses --      2.4323                 1.5924                 4.1749
 Frc consts  --      0.1093                 0.0794                 0.2262
 IR Inten    --      1.3087                 0.7187                 4.0835

                     28                     29                     30
                      A                      A                      A
 Frequencies --    323.1312               328.1065               342.6455
 Red. masses --      4.9204                 8.5422                 2.8674
 Frc consts  --      0.3027                 0.5418                 0.1984
 IR Inten    --      8.0197                22.1427                14.7892

                     31                     32                     33
                      A                      A                      A
 Frequencies --    357.0471               371.5544               395.2787
 Red. masses --     23.7028                 3.9032                21.7998
 Frc consts  --      1.7803                 0.3175                 2.0068
 IR Inten    --     53.5036                11.9240                85.1360

                     34                     35                     36
                      A                      A                      A
 Frequencies --    410.8125               422.1298               433.4252
 Red. masses --      2.9648                 5.0170                 5.3196
 Frc consts  --      0.2948                 0.5267                 0.5888
 IR Inten    --      0.5669                13.8885                 8.9284

                     37                     38                     39
                      A                      A                      A
 Frequencies --    447.4446               489.9638               525.3465
 Red. masses --      3.2191                 2.4828                 2.5539
 Frc consts  --      0.3797                 0.3512                 0.4153
 IR Inten    --      5.9153                 5.0091                13.8835

                     40                     41                     42
                      A                      A                      A
 Frequencies --    553.5388               589.1183               629.5897
 Red. masses --      3.3335                 2.7018                 5.8664
 Frc consts  --      0.6018                 0.5525                 1.3701
 IR Inten    --     21.7807                 6.5119                 4.3922

                     43                     44                     45
                      A                      A                      A
 Frequencies --    641.6391               695.6384               698.6727
 Red. masses --      4.6695                 5.6089                 2.5120
 Frc consts  --      1.1327                 1.5992                 0.7225
 IR Inten    --     29.8479                14.0319                11.3180

                     46                     47                     48
                      A                      A                      A
 Frequencies --    703.6959               717.6294               759.4210
 Red. masses --      1.5067                 1.8362                 3.1021
 Frc consts  --      0.4396                 0.5571                 1.0541
 IR Inten    --     51.8008                19.9702                24.6019

                     49                     50                     51
                      A                      A                      A
 Frequencies --    779.2575               799.8607               809.9086
 Red. masses --      3.2859                 2.4860                 1.1237
 Frc consts  --      1.1756                 0.9371                 0.4343
 IR Inten    --     13.2405                 4.2610                 0.4308

                     52                     53                     54
                      A                      A                      A
 Frequencies --    836.8159               847.3583               859.6087
 Red. masses --      1.2519                 3.2793                 2.7481
 Frc consts  --      0.5165                 1.3873                 1.1964
 IR Inten    --      1.2834                 3.9471                23.9166

                     55                     56                     57
                      A                      A                      A
 Frequencies --    877.8441               893.4202               910.3071
 Red. masses --      2.7876                 3.1012                 1.8131
 Frc consts  --      1.2657                 1.4585                 0.8852
 IR Inten    --      7.8572                 2.8131                17.3678

                     58                     59                     60
                      A                      A                      A
 Frequencies --    933.0032               947.6841               969.4839
 Red. masses --      2.5812                 2.5385                 2.2823
 Frc consts  --      1.3238                 1.3433                 1.2639
 IR Inten    --      7.1010                 5.9160                60.7636

                     61                     62                     63
                      A                      A                      A
 Frequencies --    976.8462               996.3812               999.0276
 Red. masses --      1.3769                 2.5428                 1.3842
 Frc consts  --      0.7741                 1.4874                 0.8140
 IR Inten    --      0.6397                12.5111                 1.4585

                     64                     65                     66
                      A                      A                      A
 Frequencies --   1009.3231              1015.7136              1023.2413
 Red. masses --      5.0454                 2.4721                 1.7786
 Frc consts  --      3.0284                 1.5026                 1.0972
 IR Inten    --      0.9960                17.3412                 6.8614

                     67                     68                     69
                      A                      A                      A
 Frequencies --   1031.4592              1042.3424              1055.4734
 Red. masses --      1.9510                 2.6157                 2.2316
 Frc consts  --      1.2230                 1.6744                 1.4647
 IR Inten    --      2.2243                32.7850                 6.0531

                     70                     71                     72
                      A                      A                      A
 Frequencies --   1069.8700              1098.8191              1109.8086
 Red. masses --      2.1659                 2.1629                 2.2833
 Frc consts  --      1.4607                 1.5387                 1.6569
 IR Inten    --     21.1991                90.4105                22.5190

                     73                     74                     75
                      A                      A                      A
 Frequencies --   1126.2262              1135.1766              1160.7118
 Red. masses --      2.3660                 2.2676                 1.6635
 Frc consts  --      1.7682                 1.7216                 1.3204
 IR Inten    --     64.8000                16.7324                39.2943

                     76                     77                     78
                      A                      A                      A
 Frequencies --   1171.3651              1174.3159              1188.3106
 Red. masses --      1.5529                 1.0879                 1.5252
 Frc consts  --      1.2554                 0.8839                 1.2689
 IR Inten    --      8.7937                 0.3689                10.7282

                     79                     80                     81
                      A                      A                      A
 Frequencies --   1206.0412              1211.3755              1225.7384
 Red. masses --      1.2073                 1.6181                 1.9770
 Frc consts  --      1.0347                 1.3990                 1.7501
 IR Inten    --     16.6444                25.0702                98.0228

                     82                     83                     84
                      A                      A                      A
 Frequencies --   1241.8411              1263.6278              1280.3318
 Red. masses --      1.5870                 1.6038                 1.3710
 Frc consts  --      1.4420                 1.5089                 1.3241
 IR Inten    --    109.0977                12.4426                31.3005

                     85                     86                     87
                      A                      A                      A
 Frequencies --   1287.1376              1302.6055              1314.7768
 Red. masses --      1.1133                 1.2242                 1.6855
 Frc consts  --      1.0867                 1.2238                 1.7167
 IR Inten    --      4.4795                15.8633               103.1633

                     88                     89                     90
                      A                      A                      A
 Frequencies --   1320.8897              1328.4116              1333.1043
 Red. masses --      1.5525                 1.4313                 1.2447
 Frc consts  --      1.5960                 1.4882                 1.3033
 IR Inten    --     50.6292                35.2153                26.6669

                     91                     92                     93
                      A                      A                      A
 Frequencies --   1345.5332              1359.7634              1368.6935
 Red. masses --      1.3741                 2.8328                 1.3700
 Frc consts  --      1.4657                 3.0860                 1.5121
 IR Inten    --     18.8000                 0.8195                14.0958

                     94                     95                     96
                      A                      A                      A
 Frequencies --   1389.2528              1395.1711              1417.0746
 Red. masses --      1.2786                 1.5861                 1.2931
 Frc consts  --      1.4539                 1.8190                 1.5300
 IR Inten    --     11.1968                67.3240                10.1628

                     97                     98                     99
                      A                      A                      A
 Frequencies --   1420.2609              1439.2737              1470.9853
 Red. masses --      1.5273                 1.4197                 2.2188
 Frc consts  --      1.8151                 1.7327                 2.8287
 IR Inten    --      8.1833                33.1319                 6.2945

                    100                    101                    102
                      A                      A                      A
 Frequencies --   1477.1416              1482.6301              1487.5829
 Red. masses --      1.0406                 1.1146                 1.0531
 Frc consts  --      1.3378                 1.4436                 1.3730
 IR Inten    --      3.6599                 6.7495                 1.1297

                    103                    104                    105
                      A                      A                      A
 Frequencies --   1496.0936              1505.6204              1506.3893
 Red. masses --      1.2481                 1.0900                 1.1499
 Frc consts  --      1.6460                 1.4558                 1.5375
 IR Inten    --     21.2570                 5.2765                20.9463

                    106                    107                    108
                      A                      A                      A
 Frequencies --   1520.8884              1523.8659              1628.5781
 Red. masses --      1.7086                 1.6909                 5.8406
 Frc consts  --      2.3285                 2.3134                 9.1269
 IR Inten    --      3.2081                33.9261                 0.3307

                    109                    110                    111
                      A                      A                      A
 Frequencies --   1648.2019              1759.8996              2634.2099
 Red. masses --      5.8732                11.2886                 1.0690
 Frc consts  --      9.4003                20.5999                 4.3705
 IR Inten    --      1.3120               223.4666               608.1283

                    112                    113                    114
                      A                      A                      A
 Frequencies --   2890.4021              3038.8528              3054.4779
 Red. masses --      1.0628                 1.0351                 1.0623
 Frc consts  --      5.2314                 5.6320                 5.8392
 IR Inten    --    119.3059                17.9067                17.7502

                    115                    116                    117
                      A                      A                      A
 Frequencies --   3060.5748              3071.8000              3077.4582
 Red. masses --      1.0600                 1.0631                 1.0615
 Frc consts  --      5.8500                 5.9102                 5.9231
 IR Inten    --     22.3903                27.2532                10.0035

                    118                    119                    120
                      A                      A                      A
 Frequencies --   3080.7629              3098.6894              3108.4684
 Red. masses --      1.0654                 1.1022                 1.1048
 Frc consts  --      5.9579                 6.2352                 6.2899
 IR Inten    --      5.0860                 6.1014                 6.0138

                    121                    122                    123
                      A                      A                      A
 Frequencies --   3110.6900              3118.2083              3124.9171
 Red. masses --      1.0903                 1.1012                 1.0955
 Frc consts  --      6.2158                 6.3086                 6.3030
 IR Inten    --      0.1129                16.3445                11.7879

                    124                    125                    126
                      A                      A                      A
 Frequencies --   3128.2250              3133.6707              3168.2910
 Red. masses --      1.0890                 1.1061                 1.0851
 Frc consts  --      6.2789                 6.3999                 6.4177
 IR Inten    --      5.1594                23.0451                 2.2222

                    127                    128                    129
                      A                      A                      A
 Frequencies --   3168.9245              3179.5244              3186.8144
 Red. masses --      1.1044                 1.0885                 1.1073
 Frc consts  --      6.5346                 6.4836                 6.6258
 IR Inten    --      9.1262                 6.4309                22.2017

                    130                    131                    132
                      A                      A                      A
 Frequencies --   3188.8386              3197.4173              3231.4595
 Red. masses --      1.0926                 1.0980                 1.0918
 Frc consts  --      6.5460                 6.6139                 6.7174
 IR Inten    --     24.1649                14.4474                 1.4170

 - Thermochemistry -
 -------------------
 Temperature   298.150 Kelvin.  Pressure   1.00000 Atm.
 Atom     1 has atomic number  6 and mass  12.00000

 Molecular mass:   434.99839 amu.
 Principal axes and moments of inertia in atomic units:
                           1         2         3
     Eigenvalues --  9882.74309********************
           X            0.96370   0.26613  -0.02133
           Y            0.14421  -0.45164   0.88047
           Z           -0.22468   0.85159   0.47362
 This molecule is an asymmetric top.
 Rotational symmetry number  1.
 Warning -- assumption of classical behavior for rotation
           may cause significant error
 Rotational temperatures (Kelvin)      0.00876     0.00829     0.00824
 Rotational constants (GHZ):           0.18262     0.17265     0.17173
 Zero-point vibrational energy     942772.5 (Joules/Mol)
                                  225.32804 (Kcal/Mol)
 Warning -- explicit consideration of  41 degrees of freedom as
           vibrations may cause significant error
 Vibrational temperatures:     35.26    50.20    54.74    69.88    79.72
          (Kelvin)             87.41   103.63   108.43   123.29   146.56
                              155.38   160.83   163.35   182.81   189.76
                              218.23   229.26   276.27   282.89   290.29
                              318.62   332.19   357.45   375.75   397.34
                              418.49   436.27   464.91   472.07   492.99
                              513.71   534.58   568.72   591.07   607.35
                              623.60   643.77   704.95   755.86   796.42
                              847.61   905.84   923.18  1000.87  1005.23
                             1012.46  1032.51  1092.64  1121.18  1150.82
                             1165.28  1203.99  1219.16  1236.79  1263.02
                             1285.43  1309.73  1342.38  1363.51  1394.87
                             1405.46  1433.57  1437.38  1452.19  1461.39
                             1472.22  1484.04  1499.70  1518.59  1539.30
                             1580.96  1596.77  1620.39  1633.27  1670.01
                             1685.33  1689.58  1709.71  1735.22  1742.90
                             1763.56  1786.73  1818.08  1842.11  1851.90
                             1874.16  1891.67  1900.47  1911.29  1918.04
                             1935.92  1956.40  1969.24  1998.82  2007.34
                             2038.85  2043.44  2070.79  2116.42  2125.28
                             2133.17  2140.30  2152.55  2166.25  2167.36
                             2188.22  2192.50  2343.16  2371.39  2532.10
                             3790.04  4158.64  4372.23  4394.71  4403.48
                             4419.64  4427.78  4432.53  4458.32  4472.39
                             4475.59  4486.41  4496.06  4500.82  4508.65
                             4558.46  4559.38  4574.63  4585.12  4588.03
                             4600.37  4649.35

 Zero-point correction=                           0.359083 (Hartree/Particle)
 Thermal correction to Energy=                    0.386240
 Thermal correction to Enthalpy=                  0.387184
 Thermal correction to Gibbs Free Energy=         0.298291
 Sum of electronic and zero-point Energies=          -3531.169928
 Sum of electronic and thermal Energies=             -3531.142771
 Sum of electronic and thermal Enthalpies=           -3531.141827
 Sum of electronic and thermal Free Energies=        -3531.230719

                     E (Thermal)             CV                S
                      KCal/Mol        Cal/Mol-Kelvin    Cal/Mol-Kelvin
 Total                  242.369             98.127            187.090
 Electronic               0.000              0.000              3.561
 Translational            0.889              2.981             44.100
 Rotational               0.889              2.981             35.339
 Vibrational            240.592             92.165            104.091
 Vibration     1          0.593              1.985              6.231
 Vibration     2          0.594              1.983              5.530
 Vibration     3          0.594              1.982              5.358
 Vibration     4          0.595              1.978              4.875
 Vibration     5          0.596              1.975              4.614
 Vibration     6          0.597              1.973              4.433
 Vibration     7          0.598              1.967              4.097
 Vibration     8          0.599              1.965              4.008
 Vibration     9          0.601              1.959              3.756
 Vibration    10          0.604              1.948              3.418
 Vibration    11          0.606              1.943              3.305
 Vibration    12          0.607              1.940              3.238
 Vibration    13          0.607              1.938              3.208
 Vibration    14          0.611              1.926              2.990
 Vibration    15          0.612              1.921              2.918
 Vibration    16          0.619              1.901              2.651
 Vibration    17          0.621              1.892              2.558
 Vibration    18          0.634              1.851              2.208
 Vibration    19          0.636              1.845              2.164
 Vibration    20          0.639              1.837              2.117
 Vibration    21          0.648              1.808              1.947
 Vibration    22          0.653              1.794              1.872
 Vibration    23          0.662              1.765              1.742
 Vibration    24          0.669              1.744              1.654
 Vibration    25          0.678              1.717              1.557
 Vibration    26          0.687              1.691              1.469
 Vibration    27          0.695              1.668              1.399
 Vibration    28          0.708              1.629              1.294
 Vibration    29          0.711              1.619              1.269
 Vibration    30          0.722              1.590              1.200
 Vibration    31          0.732              1.561              1.135
 Vibration    32          0.743              1.531              1.073
 Vibration    33          0.762              1.480              0.980
 Vibration    34          0.775              1.447              0.924
 Vibration    35          0.784              1.422              0.885
 Vibration    36          0.794              1.397              0.848
 Vibration    37          0.807              1.367              0.804
 Vibration    38          0.846              1.272              0.684
 Vibration    39          0.880              1.194              0.598
 Vibration    40          0.909              1.132              0.537
 Vibration    41          0.946              1.055              0.469

                           ! Non-Optimized Parameters !
 Normal termination of Gaussian 16 at Tue Jun 15 19:31:18 2021.
