 Gaussian 16, Revision A.03,
 Gaussian 16:  ES64L-G16RevA.03 25-Dec-2016

 ----------------------------------------------------------------------
 #p b3lyp jul-cc-pvdz empiricaldispersion=gd3bj opt freq=noraman pop=no
 ne
 ----------------------------------------------------------------------

 -----
 title
 -----
 Symbolic Z-matrix:
 Charge =  0 Multiplicity = 6

 SCF Done:  E(UB3LYP) =  -3531.57282555     A.U. after   22 cycles
 Optimization completed.
    -- Stationary point found.
 Normal termination of Gaussian 16 at Fri Jun  4 17:11:37 2021.

 ----------------------------------------------------------------------
 #P Geom=AllCheck Guess=TCheck SCRF=Check GenChk UB3LYP/Jul-CC-pVDZ Fre
 q
 ----------------------------------------------------------------------

 Structure from the checkpoint file:  "/scratch/kwaneu.2863310.bmbhpcps002/Gau-65054.chk"
 -----
 title
 -----
 Charge =  0 Multiplicity = 6

                         Standard orientation:
 ---------------------------------------------------------------------
 Center     Atomic      Atomic             Coordinates (Angstroms)
 Number     Number       Type             X           Y           Z
 ---------------------------------------------------------------------
      1          6           0        2.638807    0.206490    1.584300
      2          6           0        1.424017   -0.274052    1.073143
      3          6           0        1.183646   -1.650490    1.063912
      4          6           0        2.150888   -2.536688    1.544987
      5          6           0        3.367009   -2.056982    2.037123
      6          6           0        3.607481   -0.679512    2.056473
      7          6           0        0.438366    0.720232    0.520943
      8          6           0        0.690144    1.260882   -0.909968
      9          6           0       -0.034758    2.619196   -0.935370
     10          6           0        0.068983    3.161665    0.503685
     11          6           0        0.058826    1.930783    1.417826
     12          6           0       -1.290454    1.227609    1.702422
     13          6           0       -1.327885    0.480830    3.021543
     14          8           0       -0.964292    0.220345    0.607179
     15         26           0       -2.201653   -0.776656   -0.620759
     16         17           0       -3.540619   -1.756381    0.811249
     17          6           0       -2.575233    1.966112    1.413049
     18         17           0       -0.924405   -2.103613   -1.802637
     19         17           0       -3.197115    0.710687   -1.892582
     20          1           0        0.247416   -2.040730    0.676366
     21          1           0        1.949343   -3.608143    1.529855
     22          1           0        4.120953   -2.750906    2.410383
     23          1           0        4.549217   -0.291832    2.446445
     24          1           0        2.838625    1.277508    1.597932
     25          1           0        0.293017    0.537672   -1.631487
     26          6           0        2.182691    1.381914   -1.162151
     27          1           0        0.415826    3.300500   -1.665150
     28          1           0       -1.077412    2.455708   -1.229186
     29          1           0        1.028230    3.677842    0.631061
     30          1           0       -0.726606    3.877264    0.746088
     31          1           0        0.667680    2.054471    2.317828
     32          1           0       -2.701176    2.751702    2.170717
     33          1           0       -2.580354    2.428499    0.422931
     34          1           0       -3.432525    1.285171    1.484790
     35          1           0       -1.469308    1.204791    3.836409
     36          1           0       -2.164328   -0.228374    3.032451
     37          1           0       -0.394563   -0.066024    3.196870
     38          8           0        2.673321    0.232411   -1.644461
     39          8           0        2.849159    2.369003   -0.923353
     40          6           0        4.117299    0.122788   -1.746437
     41          6           0        4.444853   -1.351397   -1.852718
     42          1           0        4.441616    0.692708   -2.628135
     43          1           0        4.560332    0.585374   -0.856138
     44          1           0        5.532866   -1.479627   -1.943414
     45          1           0        4.100678   -1.884566   -0.956464
     46          1           0        3.966226   -1.798079   -2.734429
 ---------------------------------------------------------------------

 SCF Done:  E(UB3LYP) =  -3531.57282555     A.U. after    1 cycles

 Isotropic polarizability for W=    0.000000      279.75 Bohr**3.
 End of Minotr F.D. properties file   721 does not exist.

                      1                      2                      3
                      A                      A                      A
 Frequencies --     24.0857                31.7979                46.5306
 Red. masses --     11.8613                 6.2207                 3.3207
 Frc consts  --      0.0041                 0.0037                 0.0042
 IR Inten    --      0.1519                 1.2067                 1.0655

                      4                      5                      6
                      A                      A                      A
 Frequencies --     48.5952                61.9992                70.4004
 Red. masses --      4.0071                 5.8669                 5.7424
 Frc consts  --      0.0056                 0.0133                 0.0168
 IR Inten    --      0.0303                 0.6399                 0.1454

                      7                      8                      9
                      A                      A                      A
 Frequencies --     80.9047                85.7128                88.0984
 Red. masses --      4.7684                11.2945                 4.9672
 Frc consts  --      0.0184                 0.0489                 0.0227
 IR Inten    --      1.5917                 0.4938                 0.4276

                     10                     11                     12
                      A                      A                      A
 Frequencies --     94.2978                98.6360               112.9174
 Red. masses --      4.2470                 7.1797                15.9828
 Frc consts  --      0.0223                 0.0412                 0.1201
 IR Inten    --      0.1887                 0.8797                 2.3120

                     13                     14                     15
                      A                      A                      A
 Frequencies --    118.1037               119.8619               133.2162
 Red. masses --     13.4923                15.8742                 3.4603
 Frc consts  --      0.1109                 0.1344                 0.0362
 IR Inten    --      4.8143                 3.3388                 0.4177

                     16                     17                     18
                      A                      A                      A
 Frequencies --    151.5296               180.6763               195.2711
 Red. masses --      4.1271                 2.8198                 2.3270
 Frc consts  --      0.0558                 0.0542                 0.0523
 IR Inten    --      0.4046                 4.1858                 2.8615

                     19                     20                     21
                      A                      A                      A
 Frequencies --    207.5040               218.2491               234.2371
 Red. masses --      2.5923                 1.4200                 3.7288
 Frc consts  --      0.0658                 0.0399                 0.1205
 IR Inten    --      3.9353                 5.8466                 4.9657

                     22                     23                     24
                      A                      A                      A
 Frequencies --    249.0297               266.7298               268.0446
 Red. masses --      1.5463                 1.7799                 1.9969
 Frc consts  --      0.0565                 0.0746                 0.0845
 IR Inten    --      0.4779                 2.5421                 3.4002

                     25                     26                     27
                      A                      A                      A
 Frequencies --    283.4870               307.6649               313.2901
 Red. masses --      3.7777                 1.9670                 3.2306
 Frc consts  --      0.1789                 0.1097                 0.1868
 IR Inten    --      1.3895                 0.6501                 2.2464

                     28                     29                     30
                      A                      A                      A
 Frequencies --    347.5870               349.9299               360.6060
 Red. masses --      4.6866                21.3840                 3.2111
 Frc consts  --      0.3336                 1.5428                 0.2460
 IR Inten    --     11.4455                23.9233                 4.9130

                     31                     32                     33
                      A                      A                      A
 Frequencies --    395.8220               407.3242               409.6513
 Red. masses --      2.9425                21.3076                 3.4303
 Frc consts  --      0.2716                 2.0829                 0.3392
 IR Inten    --     12.3107                70.7354                 1.2360

                     34                     35                     36
                      A                      A                      A
 Frequencies --    411.2615               419.6648               438.0663
 Red. masses --      3.3737                19.9132                 3.5954
 Frc consts  --      0.3362                 2.0663                 0.4065
 IR Inten    --     11.4917                74.0463                 9.0926

                     37                     38                     39
                      A                      A                      A
 Frequencies --    472.4998               515.9926               537.7244
 Red. masses --      3.9064                 3.0830                 3.0447
 Frc consts  --      0.5138                 0.4836                 0.5187
 IR Inten    --      7.5086                 2.6428                 5.9107

                     40                     41                     42
                      A                      A                      A
 Frequencies --    616.9477               631.0673               641.0180
 Red. masses --      3.8802                 6.3259                 2.7530
 Frc consts  --      0.8702                 1.4843                 0.6665
 IR Inten    --      9.7040                 0.4950                 4.3181

                     43                     44                     45
                      A                      A                      A
 Frequencies --    680.3840               706.5844               714.7959
 Red. masses --      6.2507                 1.7597                 4.2187
 Frc consts  --      1.7049                 0.5176                 1.2700
 IR Inten    --     10.2805                48.6620                16.0716

                     46                     47                     48
                      A                      A                      A
 Frequencies --    735.8742               759.7618               777.3294
 Red. masses --      3.8593                 2.3938                 3.2991
 Frc consts  --      1.2313                 0.8141                 1.1745
 IR Inten    --     24.6023                80.2040                23.6899

                     49                     50                     51
                      A                      A                      A
 Frequencies --    806.5767               815.6517               846.7693
 Red. masses --      1.1958                 3.7892                 1.2606
 Frc consts  --      0.4584                 1.4853                 0.5325
 IR Inten    --      6.2162                37.5787                 0.3976

                     52                     53                     54
                      A                      A                      A
 Frequencies --    855.4052               873.2522               877.6087
 Red. masses --      2.4570                 3.8788                 3.0407
 Frc consts  --      1.0592                 1.7427                 1.3798
 IR Inten    --     32.9067                19.5916                 2.8759

                     55                     56                     57
                      A                      A                      A
 Frequencies --    919.1533               927.4156               931.7459
 Red. masses --      1.7888                 2.2298                 2.7034
 Frc consts  --      0.8904                 1.1300                 1.3828
 IR Inten    --     33.7082                21.3073                56.0318

                     58                     59                     60
                      A                      A                      A
 Frequencies --    943.9741               951.1969               972.2517
 Red. masses --      2.0119                 1.7089                 3.6213
 Frc consts  --      1.0563                 0.9110                 2.0169
 IR Inten    --      3.1887                 1.3834                 3.0956

                     61                     62                     63
                      A                      A                      A
 Frequencies --    980.8876               992.9457               997.0789
 Red. masses --      1.3904                 2.1245                 1.3026
 Frc consts  --      0.7882                 1.2341                 0.7630
 IR Inten    --      0.9816                24.3353                 0.9374

                     64                     65                     66
                      A                      A                      A
 Frequencies --   1008.0471              1015.1393              1024.9772
 Red. masses --      1.4059                 5.6054                 2.2091
 Frc consts  --      0.8417                 3.4034                 1.3674
 IR Inten    --      1.7415                 0.6334                32.7059

                     67                     68                     69
                      A                      A                      A
 Frequencies --   1053.9866              1057.0644              1067.9938
 Red. masses --      2.0560                 2.4828                 1.8717
 Frc consts  --      1.3457                 1.6345                 1.2579
 IR Inten    --      2.2774                19.6045                 4.4373

                     70                     71                     72
                      A                      A                      A
 Frequencies --   1077.9001              1106.7375              1120.6578
 Red. masses --      1.5966                 1.9385                 2.6672
 Frc consts  --      1.0930                 1.3990                 1.9736
 IR Inten    --     10.1189                12.9326                21.3448

                     73                     74                     75
                      A                      A                      A
 Frequencies --   1133.3244              1142.6259              1170.5343
 Red. masses --      2.1723                 1.8019                 1.6245
 Frc consts  --      1.6439                 1.3861                 1.3114
 IR Inten    --      4.6898                30.6148                15.8727

                     76                     77                     78
                      A                      A                      A
 Frequencies --   1174.9034              1176.6059              1192.3537
 Red. masses --      1.1193                 1.5749                 1.6703
 Frc consts  --      0.9104                 1.2846                 1.3991
 IR Inten    --      0.5505                 6.4258                 5.0099

                     79                     80                     81
                      A                      A                      A
 Frequencies --   1206.7999              1214.5779              1228.5113
 Red. masses --      1.1386                 2.0836                 2.2048
 Frc consts  --      0.9770                 1.8110                 1.9605
 IR Inten    --      1.1702               111.6324               156.6885

                     82                     83                     84
                      A                      A                      A
 Frequencies --   1246.1951              1274.2682              1286.8955
 Red. masses --      1.7210                 1.7326                 1.1237
 Frc consts  --      1.5747                 1.6575                 1.0965
 IR Inten    --     31.2783                 9.4079                 6.0502

                     85                     86                     87
                      A                      A                      A
 Frequencies --   1296.3200              1301.2499              1331.0134
 Red. masses --      2.3515                 2.4442                 1.5756
 Frc consts  --      2.3282                 2.4384                 1.6446
 IR Inten    --      3.3699                 2.7578                13.4554

                     88                     89                     90
                      A                      A                      A
 Frequencies --   1333.6313              1342.2679              1358.3623
 Red. masses --      1.6306                 1.8692                 1.5450
 Frc consts  --      1.7087                 1.9842                 1.6796
 IR Inten    --     11.0417                 3.0080                60.3466

                     91                     92                     93
                      A                      A                      A
 Frequencies --   1362.6836              1370.7417              1392.5233
 Red. masses --      2.5924                 1.4694                 1.5765
 Frc consts  --      2.8362                 1.6267                 1.8012
 IR Inten    --      0.2563                 3.6579                71.1845

                     94                     95                     96
                      A                      A                      A
 Frequencies --   1405.6877              1418.0212              1418.8755
 Red. masses --      1.3588                 1.5498                 1.2456
 Frc consts  --      1.5820                 1.8361                 1.4774
 IR Inten    --     19.0476                 8.1308                24.4331

                     97                     98                     99
                      A                      A                      A
 Frequencies --   1467.9601              1473.0097              1475.0904
 Red. masses --      1.0678                 2.2303                 1.0419
 Frc consts  --      1.3557                 2.8512                 1.3358
 IR Inten    --      2.0397                10.1368                 3.6977

                    100                    101                    102
                      A                      A                      A
 Frequencies --   1478.2875              1484.1760              1487.6791
 Red. masses --      1.0660                 1.0618                 1.0523
 Frc consts  --      1.3725                 1.3780                 1.3722
 IR Inten    --      9.6372                 1.7414                 0.5804

                    103                    104                    105
                      A                      A                      A
 Frequencies --   1494.9101              1496.7202              1507.3880
 Red. masses --      1.0894                 1.0809                 1.0872
 Frc consts  --      1.4343                 1.4266                 1.4554
 IR Inten    --     12.7006                 5.5502                 7.2507

                    106                    107                    108
                      A                      A                      A
 Frequencies --   1509.8856              1527.3850              1630.2904
 Red. masses --      1.0611                 2.3086                 5.8366
 Frc consts  --      1.4252                 3.1732                 9.1398
 IR Inten    --      2.7744                 7.9182                 0.3239

                    109                    110                    111
                      A                      A                      A
 Frequencies --   1653.7649              1768.4240              3040.0680
 Red. masses --      5.7656                11.1450                 1.0349
 Frc consts  --      9.2906                20.5353                 5.6355
 IR Inten    --      2.2694               186.8094                15.6232

                    112                    113                    114
                      A                      A                      A
 Frequencies --   3041.3566              3051.0836              3060.6976
 Red. masses --      1.0368                 1.0392                 1.0601
 Frc consts  --      5.6506                 5.7000                 5.8508
 IR Inten    --      6.5977                 7.6774                21.3978

                    115                    116                    117
                      A                      A                      A
 Frequencies --   3068.8689              3083.1773              3097.5856
 Red. masses --      1.0607                 1.0625                 1.0848
 Frc consts  --      5.8858                 5.9506                 6.1325
 IR Inten    --     23.6156                10.8814                 0.5098

                    118                    119                    120
                      A                      A                      A
 Frequencies --   3108.6233              3111.9895              3118.3545
 Red. masses --      1.1051                 1.1015                 1.1008
 Frc consts  --      6.2918                 6.2852                 6.3069
 IR Inten    --      2.8912                 7.8608                18.7590

                    121                    122                    123
                      A                      A                      A
 Frequencies --   3118.6199              3119.9695              3125.3653
 Red. masses --      1.0962                 1.0952                 1.1001
 Frc consts  --      6.2813                 6.2815                 6.3310
 IR Inten    --     11.2076                 5.6277                14.6690

                    124                    125                    126
                      A                      A                      A
 Frequencies --   3132.9646              3135.7076              3142.4803
 Red. masses --      1.1057                 1.1059                 1.1040
 Frc consts  --      6.3946                 6.4070                 6.4234
 IR Inten    --     26.0361                10.1908                 8.9753

                    127                    128                    129
                      A                      A                      A
 Frequencies --   3167.8054              3170.8980              3181.1355
 Red. masses --      1.0998                 1.0852                 1.0891
 Frc consts  --      6.5027                 6.4289                 6.4938
 IR Inten    --      4.7044                 0.3449                 5.8831

                    130                    131                    132
                      A                      A                      A
 Frequencies --   3190.5186              3198.0504              3233.3097
 Red. masses --      1.0934                 1.0982                 1.0920
 Frc consts  --      6.5577                 6.6178                 6.7263
 IR Inten    --     10.6544                10.4597                 1.4267

 - Thermochemistry -
 -------------------
 Temperature   298.150 Kelvin.  Pressure   1.00000 Atm.
 Atom     1 has atomic number  6 and mass  12.00000

 Molecular mass:   434.99839 amu.
 Principal axes and moments of inertia in atomic units:
                           1         2         3
     Eigenvalues --  7122.60420********************
           X            0.99890  -0.03749  -0.02815
           Y            0.03919   0.99727   0.06257
           Z            0.02572  -0.06361   0.99764
 This molecule is an asymmetric top.
 Rotational symmetry number  1.
 Warning -- assumption of classical behavior for rotation
           may cause significant error
 Rotational temperatures (Kelvin)      0.01216     0.00677     0.00655
 Rotational constants (GHZ):           0.25338     0.14111     0.13643
 Zero-point vibrational energy     954486.9 (Joules/Mol)
                                  228.12785 (Kcal/Mol)
 Warning -- explicit consideration of  40 degrees of freedom as
           vibrations may cause significant error
 Vibrational temperatures:     34.65    45.75    66.95    69.92    89.20
          (Kelvin)            101.29   116.40   123.32   126.75   135.67
                              141.92   162.46   169.92   172.45   191.67
                              218.02   259.95   280.95   298.55   314.01
                              337.01   358.30   383.76   385.66   407.87
                              442.66   450.75   500.10   503.47   518.83
                              569.50   586.05   589.40   591.71   603.80
                              630.28   679.82   742.40   773.67   887.65
                              907.97   922.28   978.92  1016.62  1028.43
                             1058.76  1093.13  1118.40  1160.48  1173.54
                             1218.31  1230.74  1256.42  1262.68  1322.46
                             1334.34  1340.57  1358.17  1368.56  1398.85
                             1411.28  1428.63  1434.57  1450.35  1460.56
                             1474.71  1516.45  1520.88  1536.60  1550.86
                             1592.35  1612.38  1630.60  1643.98  1684.14
                             1690.42  1692.87  1715.53  1736.32  1747.51
                             1767.55  1793.00  1833.39  1851.56  1865.12
                             1872.21  1915.03  1918.80  1931.22  1954.38
                             1960.60  1972.19  2003.53  2022.47  2040.22
                             2041.45  2112.07  2119.33  2122.33  2126.93
                             2135.40  2140.44  2150.84  2153.45  2168.80
                             2172.39  2197.57  2345.62  2379.40  2544.37
                             4373.98  4375.83  4389.83  4403.66  4415.42
                             4436.00  4456.73  4472.62  4477.46  4486.62
                             4487.00  4488.94  4496.70  4507.64  4511.58
                             4521.33  4557.77  4562.22  4576.94  4590.44
                             4601.28  4652.01

 Zero-point correction=                           0.363545 (Hartree/Particle)
 Thermal correction to Energy=                    0.390024
 Thermal correction to Enthalpy=                  0.390968
 Thermal correction to Gibbs Free Energy=         0.303654
 Sum of electronic and zero-point Energies=          -3531.209281
 Sum of electronic and thermal Energies=             -3531.182802
 Sum of electronic and thermal Enthalpies=           -3531.181858
 Sum of electronic and thermal Free Energies=        -3531.269171

                     E (Thermal)             CV                S
                      KCal/Mol        Cal/Mol-Kelvin    Cal/Mol-Kelvin
 Total                  244.743             96.302            183.766
 Electronic               0.000              0.000              3.561
 Translational            0.889              2.981             44.100
 Rotational               0.889              2.981             35.442
 Vibrational            242.966             90.340            100.663
 Vibration     1          0.593              1.985              6.265
 Vibration     2          0.594              1.983              5.714
 Vibration     3          0.595              1.979              4.960
 Vibration     4          0.595              1.978              4.874
 Vibration     5          0.597              1.972              4.393
 Vibration     6          0.598              1.968              4.142
 Vibration     7          0.600              1.962              3.869
 Vibration     8          0.601              1.959              3.756
 Vibration     9          0.601              1.958              3.702
 Vibration    10          0.603              1.953              3.569
 Vibration    11          0.604              1.950              3.481
 Vibration    12          0.607              1.939              3.218
 Vibration    13          0.608              1.934              3.131
 Vibration    14          0.609              1.933              3.103
 Vibration    15          0.613              1.920              2.899
 Vibration    16          0.619              1.901              2.653
 Vibration    17          0.630              1.866              2.321
 Vibration    18          0.636              1.846              2.177
 Vibration    19          0.641              1.829              2.066
 Vibration    20          0.646              1.813              1.974
 Vibration    21          0.654              1.788              1.846
 Vibration    22          0.662              1.764              1.737
 Vibration    23          0.672              1.734              1.617
 Vibration    24          0.673              1.732              1.609
 Vibration    25          0.682              1.704              1.513
 Vibration    26          0.698              1.659              1.375
 Vibration    27          0.701              1.648              1.345
 Vibration    28          0.725              1.580              1.177
 Vibration    29          0.727              1.575              1.167
 Vibration    30          0.735              1.553              1.119
 Vibration    31          0.763              1.479              0.978
 Vibration    32          0.772              1.454              0.936
 Vibration    33          0.774              1.449              0.928
 Vibration    34          0.775              1.446              0.922
 Vibration    35          0.782              1.428              0.893
 Vibration    36          0.798              1.387              0.833
 Vibration    37          0.829              1.311              0.731
 Vibration    38          0.871              1.215              0.619
 Vibration    39          0.893              1.167              0.570
 Vibration    40          0.977              0.996              0.421

 Optimization completed.
    -- Stationary point found.
 Normal termination of Gaussian 16 at Fri Jun  4 21:27:35 2021.
