 Gaussian 16, Revision A.03,
 Gaussian 16:  ES64L-G16RevA.03 25-Dec-2016

 ----------------------------------------------------------------------
 #p opt=(ts,noeigentest,calcfc) freq=noraman b3lyp jul-cc-pvdz pop=none
  empiricaldispersion=gd3bj
 ----------------------------------------------------------------------

 -----
 title
 -----
 Symbolic Z-matrix:
 Charge =  0 Multiplicity = 6

 SCF Done:  E(UB3LYP) =  -3531.53216544     A.U. after   25 cycles
 Optimization completed.
    -- Stationary point found.
 Normal termination of Gaussian 16 at Wed Jun  2 20:14:24 2021.

 ----------------------------------------------------------------------
 #P Geom=AllCheck Guess=TCheck SCRF=Check GenChk UB3LYP/Jul-CC-pVDZ Fre
 q
 ----------------------------------------------------------------------

 Structure from the checkpoint file:  "/scratch/kwaneu.2863089.bmbhpcps002/Gau-44061.chk"
 -----
 title
 -----
 Charge =  0 Multiplicity = 6

                         Standard orientation:
 ---------------------------------------------------------------------
 Center     Atomic      Atomic             Coordinates (Angstroms)
 Number     Number       Type             X           Y           Z
 ---------------------------------------------------------------------
      1          6           0       -3.049551    0.762147   -1.492236
      2          6           0       -2.151941    0.101790   -0.638058
      3          6           0       -2.330339   -1.270688   -0.415973
      4          6           0       -3.368842   -1.966122   -1.037926
      5          6           0       -4.254024   -1.301146   -1.888717
      6          6           0       -4.088571    0.068701   -2.113852
      7          6           0       -1.032128    0.842963    0.075535
      8          6           0       -0.528668    2.119560   -0.690675
      9          6           0       -1.278967    3.321585   -0.101373
     10          6           0       -1.405766    3.016223    1.399677
     11          6           0       -1.669725    1.506429    1.482726
     12          6           0       -0.981006    0.719889    2.503194
     13          6           0       -1.580627   -0.513360    3.000210
     14          8           0        0.008596    0.014887    0.451805
     15         26           0        1.116152   -1.434513    0.123962
     16         17           0        1.056010   -2.058221   -1.983469
     17          6           0        0.333690    1.111821    3.034287
     18         17           0        0.284738   -3.023226    1.518188
     19         17           0        3.127009   -0.874476    0.878909
     20          1           0       -1.646435   -1.817241    0.226329
     21          1           0       -3.472264   -3.037458   -0.863536
     22          1           0       -5.060663   -1.845615   -2.380890
     23          1           0       -4.764708    0.599884   -2.784744
     24          1           0       -2.944267    1.825655   -1.695577
     25          1           0       -0.715786    1.980284   -1.759489
     26          6           0        0.974958    2.270394   -0.507717
     27          1           0       -0.750009    4.264783   -0.280762
     28          1           0       -2.272317    3.405339   -0.560072
     29          1           0       -0.469183    3.282239    1.896320
     30          1           0       -2.218053    3.579840    1.875946
     31          1           0       -2.737981    1.276693    1.476316
     32          1           0        0.914512    1.720346    2.334630
     33          1           0        0.122246    1.730536    3.929928
     34          1           0        0.903249    0.236383    3.367722
     35          1           0       -1.015968   -1.341169    2.498333
     36          1           0       -1.365922   -0.660970    4.068325
     37          1           0       -2.644607   -0.618740    2.773324
     38          8           0        1.638460    1.731284   -1.528966
     39          8           0        1.499368    2.833526    0.436670
     40          6           0        3.097052    1.797807   -1.473846
     41          6           0        3.628575    0.906339   -2.573397
     42          1           0        3.382898    2.850813   -1.604325
     43          1           0        3.413000    1.464132   -0.480559
     44          1           0        4.727249    0.940653   -2.563408
     45          1           0        3.309890   -0.131482   -2.415969
     46          1           0        3.277187    1.239566   -3.559742
 ---------------------------------------------------------------------

 SCF Done:  E(UB3LYP) =  -3531.53216544     A.U. after    2 cycles

 Isotropic polarizability for W=    0.000000      297.41 Bohr**3.
 End of Minotr F.D. properties file   721 does not exist.

 ******    1 imaginary frequencies (negative Signs) ******

                      1                      2                      3
                      A                      A                      A
 Frequencies --   -251.6665                22.6427                36.0612
 Red. masses --      8.5479                 7.4683                 6.8065
 Frc consts  --      0.3190                 0.0023                 0.0052
 IR Inten    --     30.9519                 0.2825                 0.4634

                      4                      5                      6
                      A                      A                      A
 Frequencies --     44.6640                51.6171                59.5103
 Red. masses --      6.3825                 4.2221                 4.7918
 Frc consts  --      0.0075                 0.0066                 0.0100
 IR Inten    --      0.7922                 0.0656                 0.6818

                      7                      8                      9
                      A                      A                      A
 Frequencies --     66.6435                77.0024                89.3511
 Red. masses --      4.1955                 6.3543                 7.6630
 Frc consts  --      0.0110                 0.0222                 0.0360
 IR Inten    --      1.1275                 3.4871                 1.1605

                     10                     11                     12
                      A                      A                      A
 Frequencies --     92.6592                99.9944               101.5467
 Red. masses --      8.0732                 5.7364                 6.3647
 Frc consts  --      0.0408                 0.0338                 0.0387
 IR Inten    --      3.0242                 2.5460                 0.3582

                     13                     14                     15
                      A                      A                      A
 Frequencies --    111.3284               118.9491               130.5970
 Red. masses --      8.1191                12.1739                 5.1408
 Frc consts  --      0.0593                 0.1015                 0.0517
 IR Inten    --      1.0168                 3.7611                 3.8358

                     16                     17                     18
                      A                      A                      A
 Frequencies --    141.5687               155.1676               172.6865
 Red. masses --      2.9922                 2.3286                 2.4479
 Frc consts  --      0.0353                 0.0330                 0.0430
 IR Inten    --      1.3536                 6.4644                 9.3916

                     19                     20                     21
                      A                      A                      A
 Frequencies --    186.1883               198.3060               210.8344
 Red. masses --      3.6301                 1.8265                 3.8679
 Frc consts  --      0.0741                 0.0423                 0.1013
 IR Inten    --      3.2224                 9.4578                 2.3838

                     22                     23                     24
                      A                      A                      A
 Frequencies --    220.5732               245.5985               256.0162
 Red. masses --      2.0558                 3.9506                 2.1326
 Frc consts  --      0.0589                 0.1404                 0.0824
 IR Inten    --      3.0336                 5.4616                 3.2069

                     25                     26                     27
                      A                      A                      A
 Frequencies --    260.8310               273.6525               287.6141
 Red. masses --      1.2683                 2.6939                 3.4144
 Frc consts  --      0.0508                 0.1189                 0.1664
 IR Inten    --      2.2531                 2.2589                 4.8197

                     28                     29                     30
                      A                      A                      A
 Frequencies --    317.5663               322.8937               327.1780
 Red. masses --      2.3233                 7.9031                 6.1585
 Frc consts  --      0.1380                 0.4855                 0.3884
 IR Inten    --      0.9498                17.0948                19.8368

                     31                     32                     33
                      A                      A                      A
 Frequencies --    350.5089               367.8817               388.1477
 Red. masses --      5.5343                15.5683                 5.2931
 Frc consts  --      0.4006                 1.2414                 0.4698
 IR Inten    --      5.7162                82.8931                26.5745

                     34                     35                     36
                      A                      A                      A
 Frequencies --    402.4027               409.4499               412.2439
 Red. masses --     16.2619                 3.5922                 3.0040
 Frc consts  --      1.5515                 0.3548                 0.3008
 IR Inten    --     76.4724                 6.4009                 1.4142

                     37                     38                     39
                      A                      A                      A
 Frequencies --    432.9925               467.1344               511.0833
 Red. masses --      3.8006                 3.0911                 3.1914
 Frc consts  --      0.4198                 0.3974                 0.4911
 IR Inten    --      1.5843                 6.2687                 4.9953

                     40                     41                     42
                      A                      A                      A
 Frequencies --    517.2686               561.7594               614.1239
 Red. masses --      2.5507                 2.9062                 3.6565
 Frc consts  --      0.4021                 0.5404                 0.8125
 IR Inten    --     15.4157                 4.9528                86.1734

                     43                     44                     45
                      A                      A                      A
 Frequencies --    629.8788               643.8994               679.9900
 Red. masses --      6.0960                 4.0302                 4.4072
 Frc consts  --      1.4250                 0.9845                 1.2007
 IR Inten    --      6.3037                39.4970                31.6564

                     46                     47                     48
                      A                      A                      A
 Frequencies --    706.1464               734.6693               745.3713
 Red. masses --      1.5910                 3.3563                 4.2806
 Frc consts  --      0.4674                 1.0673                 1.4012
 IR Inten    --     39.2068                 9.0526                30.3116

                     49                     50                     51
                      A                      A                      A
 Frequencies --    785.4348               805.0253               812.0516
 Red. masses --      2.8637                 1.6743                 1.1781
 Frc consts  --      1.0409                 0.6393                 0.4577
 IR Inten    --      3.2077                 7.5525                 1.7335

                     52                     53                     54
                      A                      A                      A
 Frequencies --    845.2556               853.2300               859.4475
 Red. masses --      1.2725                 2.1129                 2.2164
 Frc consts  --      0.5356                 0.9063                 0.9646
 IR Inten    --      0.6517                11.0859                 4.7777

                     55                     56                     57
                      A                      A                      A
 Frequencies --    865.6681               908.0064               918.9358
 Red. masses --      2.6783                 3.5920                 3.9834
 Frc consts  --      1.1825                 1.7449                 1.9819
 IR Inten    --     26.5892                15.8702                15.6157

                     58                     59                     60
                      A                      A                      A
 Frequencies --    934.8396               954.2593               967.6145
 Red. masses --      1.5718                 2.3324                 2.3032
 Frc consts  --      0.8093                 1.2514                 1.2705
 IR Inten    --      0.6242                10.4286                18.6772

                     61                     62                     63
                      A                      A                      A
 Frequencies --    980.3243               985.5428              1003.8247
 Red. masses --      1.6074                 1.3478                 3.2840
 Frc consts  --      0.9101                 0.7713                 1.9497
 IR Inten    --     17.4402                 0.4067                15.2876

                     64                     65                     66
                      A                      A                      A
 Frequencies --   1007.5628              1012.0972              1024.6879
 Red. masses --      2.0330                 1.8808                 1.6853
 Frc consts  --      1.2160                 1.1351                 1.0426
 IR Inten    --      2.4018                 4.3410                17.1712

                     67                     68                     69
                      A                      A                      A
 Frequencies --   1036.4268              1053.8754              1056.0843
 Red. masses --      2.5292                 2.0490                 2.1467
 Frc consts  --      1.6007                 1.3408                 1.4106
 IR Inten    --     13.1880                20.6602                 1.6166

                     70                     71                     72
                      A                      A                      A
 Frequencies --   1076.2658              1093.2164              1110.1752
 Red. masses --      1.7959                 2.3967                 1.8417
 Frc consts  --      1.2257                 1.6876                 1.3374
 IR Inten    --     24.6429                22.5939                28.7885

                     73                     74                     75
                      A                      A                      A
 Frequencies --   1134.8365              1138.8052              1161.2040
 Red. masses --      2.1314                 2.0043                 1.9314
 Frc consts  --      1.6173                 1.5315                 1.5344
 IR Inten    --     25.8350                42.5816                34.2776

                     76                     77                     78
                      A                      A                      A
 Frequencies --   1171.6228              1175.6582              1187.8975
 Red. masses --      1.5600                 1.0901                 1.4298
 Frc consts  --      1.2617                 0.8877                 1.1887
 IR Inten    --     11.0180                 0.4084                20.5875

                     79                     80                     81
                      A                      A                      A
 Frequencies --   1204.6515              1211.3089              1220.9835
 Red. masses --      1.3751                 1.2419                 2.1389
 Frc consts  --      1.1757                 1.0736                 1.8787
 IR Inten    --      0.8065                25.7931               171.4063

                     82                     83                     84
                      A                      A                      A
 Frequencies --   1248.7578              1269.8717              1281.4383
 Red. masses --      2.6729                 1.6869                 1.6913
 Frc consts  --      2.4557                 1.6027                 1.6363
 IR Inten    --    114.7145               128.6197                65.3095

                     85                     86                     87
                      A                      A                      A
 Frequencies --   1291.9263              1309.3815              1325.7652
 Red. masses --      1.1387                 1.2344                 1.4215
 Frc consts  --      1.1197                 1.2469                 1.4720
 IR Inten    --      9.7845                42.5997                25.4543

                     88                     89                     90
                      A                      A                      A
 Frequencies --   1332.4908              1338.7931              1357.1414
 Red. masses --      1.4742                 1.7626                 1.3332
 Frc consts  --      1.5422                 1.8613                 1.4468
 IR Inten    --     18.3654                14.9257                 0.2754

                     91                     92                     93
                      A                      A                      A
 Frequencies --   1362.5069              1368.2881              1383.3312
 Red. masses --      2.6584                 1.3590                 1.6611
 Frc consts  --      2.9077                 1.4991                 1.8728
 IR Inten    --      1.1351                53.3501                93.4309

                     94                     95                     96
                      A                      A                      A
 Frequencies --   1398.2338              1413.8136              1418.4287
 Red. masses --      1.5758                 1.2928                 1.0556
 Frc consts  --      1.8152                 1.5225                 1.2513
 IR Inten    --    102.4813                24.1577                 0.9760

                     97                     98                     99
                      A                      A                      A
 Frequencies --   1423.8929              1451.6008              1471.1655
 Red. masses --      1.6025                 1.2889                 2.2073
 Frc consts  --      1.9143                 1.6001                 2.8147
 IR Inten    --     15.6184                12.2059                11.0471

                    100                    101                    102
                      A                      A                      A
 Frequencies --   1473.7661              1476.8283              1485.8832
 Red. masses --      1.0382                 1.1495                 1.0545
 Frc consts  --      1.3286                 1.4771                 1.3717
 IR Inten    --      2.6325                 7.7333                 0.6592

                    103                    104                    105
                      A                      A                      A
 Frequencies --   1489.7698              1498.4852              1503.2986
 Red. masses --      1.1448                 1.3261                 1.0994
 Frc consts  --      1.4970                 1.7545                 1.4638
 IR Inten    --     15.3495                17.3385                12.3751

                    106                    107                    108
                      A                      A                      A
 Frequencies --   1508.4626              1522.9805              1626.3094
 Red. masses --      1.2300                 2.1737                 5.6704
 Frc consts  --      1.6490                 2.9706                 8.8363
 IR Inten    --     14.2582                 2.7049                 0.7290

                    109                    110                    111
                      A                      A                      A
 Frequencies --   1645.1533              1753.3594              2790.9420
 Red. masses --      5.7987                10.7599                 1.0667
 Frc consts  --      9.2468                19.4894                 4.8953
 IR Inten    --      3.5792               184.6184               384.6969

                    112                    113                    114
                      A                      A                      A
 Frequencies --   2978.8708              3040.8316              3061.7094
 Red. masses --      1.0545                 1.0359                 1.0653
 Frc consts  --      5.5129                 5.6436                 5.8836
 IR Inten    --     13.9953                21.4584                34.5620

                    115                    116                    117
                      A                      A                      A
 Frequencies --   3065.6056              3068.4975              3074.4205
 Red. masses --      1.0636                 1.0643                 1.0664
 Frc consts  --      5.8894                 5.9045                 5.9389
 IR Inten    --     16.7941                 2.2950                39.7451

                    118                    119                    120
                      A                      A                      A
 Frequencies --   3094.4543              3111.9095              3115.9045
 Red. masses --      1.0738                 1.1022                 1.0993
 Frc consts  --      6.0584                 6.2888                 6.2884
 IR Inten    --     12.5702                14.0845                16.9454

                    121                    122                    123
                      A                      A                      A
 Frequencies --   3119.9006              3120.5641              3133.0081
 Red. masses --      1.0889                 1.0875                 1.0995
 Frc consts  --      6.2448                 6.2393                 6.3587
 IR Inten    --      2.9720                 6.0689                 5.7818

                    124                    125                    126
                      A                      A                      A
 Frequencies --   3148.3812              3151.6881              3161.9268
 Red. masses --      1.1036                 1.0987                 1.1068
 Frc consts  --      6.4449                 6.4298                 6.5195
 IR Inten    --      8.9637                10.1929                10.9560

                    127                    128                    129
                      A                      A                      A
 Frequencies --   3168.7659              3172.0183              3183.4300
 Red. masses --      1.1028                 1.0854                 1.0903
 Frc consts  --      6.5243                 6.4342                 6.5099
 IR Inten    --      4.9093                 0.3803                 8.7679

                    130                    131                    132
                      A                      A                      A
 Frequencies --   3195.8871              3207.6359              3226.5287
 Red. masses --      1.0957                 1.0930                 1.0918
 Frc consts  --      6.5938                 6.6256                 6.6969
 IR Inten    --     17.1082                 9.8888                12.6060

 - Thermochemistry -
 -------------------
 Temperature   298.150 Kelvin.  Pressure   1.00000 Atm.
 Atom     1 has atomic number  6 and mass  12.00000

 Molecular mass:   434.99839 amu.
 Principal axes and moments of inertia in atomic units:
                           1         2         3
     Eigenvalues --  8761.32454********************
           X            0.99782   0.06060  -0.02604
           Y           -0.06040   0.99814   0.00815
           Z            0.02648  -0.00656   0.99963
 This molecule is an asymmetric top.
 Rotational symmetry number  1.
 Warning -- assumption of classical behavior for rotation
           may cause significant error
 Rotational temperatures (Kelvin)      0.00989     0.00830     0.00723
 Rotational constants (GHZ):           0.20599     0.17292     0.15074
    1 imaginary frequencies ignored.
 Zero-point vibrational energy     942866.8 (Joules/Mol)
                                  225.35057 (Kcal/Mol)
 Warning -- explicit consideration of  41 degrees of freedom as
           vibrations may cause significant error
 Vibrational temperatures:     32.58    51.88    64.26    74.27    85.62
          (Kelvin)             95.89   110.79   128.56   133.32   143.87
                              146.10   160.18   171.14   187.90   203.69
                              223.25   248.46   267.88   285.32   303.34
                              317.36   353.36   368.35   375.28   393.72
                              413.81   456.91   464.57   470.74   504.30
                              529.30   558.46   578.97   589.11   593.13
                              622.98   672.10   735.33   744.23   808.25
                              883.59   906.26   926.43   978.35  1015.99
                             1057.03  1072.42  1130.07  1158.25  1168.36
                             1216.13  1227.61  1236.55  1245.50  1306.42
                             1322.14  1345.03  1372.97  1392.18  1410.47
                             1417.98  1444.28  1449.66  1456.18  1474.30
                             1491.19  1516.29  1519.47  1548.51  1572.89
                             1597.29  1632.78  1638.49  1670.71  1685.70
                             1691.51  1709.12  1733.22  1742.80  1756.72
                             1796.68  1827.06  1843.70  1858.79  1883.91
                             1907.48  1917.16  1926.22  1952.62  1960.34
                             1968.66  1990.31  2011.75  2034.16  2040.80
                             2048.66  2088.53  2116.68  2120.42  2124.83
                             2137.85  2143.45  2155.99  2162.91  2170.34
                             2191.23  2339.90  2367.01  2522.69  4015.54
                             4285.93  4375.08  4405.12  4410.72  4414.88
                             4423.41  4452.23  4477.34  4483.09  4488.84
                             4489.80  4507.70  4529.82  4534.58  4549.31
                             4559.15  4563.83  4580.25  4598.17  4615.07
                             4642.26

 Zero-point correction=                           0.359119 (Hartree/Particle)
 Thermal correction to Energy=                    0.385886
 Thermal correction to Enthalpy=                  0.386831
 Thermal correction to Gibbs Free Energy=         0.299102
 Sum of electronic and zero-point Energies=          -3531.173046
 Sum of electronic and thermal Energies=             -3531.146279
 Sum of electronic and thermal Enthalpies=           -3531.145335
 Sum of electronic and thermal Free Energies=        -3531.233063

                     E (Thermal)             CV                S
                      KCal/Mol        Cal/Mol-Kelvin    Cal/Mol-Kelvin
 Total                  242.147             96.847            184.639
 Electronic               0.000              0.000              3.561
 Translational            0.889              2.981             44.100
 Rotational               0.889              2.981             35.347
 Vibrational            240.370             90.886            101.631
 Vibration     1          0.593              1.985              6.388
 Vibration     2          0.594              1.982              5.465
 Vibration     3          0.595              1.980              5.041
 Vibration     4          0.596              1.977              4.754
 Vibration     5          0.597              1.974              4.473
 Vibration     6          0.598              1.970              4.250
 Vibration     7          0.599              1.964              3.966
 Vibration     8          0.602              1.957              3.674
 Vibration     9          0.602              1.954              3.603
 Vibration    10          0.604              1.949              3.454
 Vibration    11          0.604              1.948              3.424
 Vibration    12          0.607              1.940              3.246
 Vibration    13          0.609              1.934              3.117
 Vibration    14          0.612              1.923              2.937
 Vibration    15          0.615              1.912              2.783
 Vibration    16          0.620              1.897              2.608
 Vibration    17          0.626              1.876              2.406
 Vibration    18          0.632              1.859              2.265
 Vibration    19          0.637              1.842              2.149
 Vibration    20          0.643              1.824              2.036
 Vibration    21          0.647              1.810              1.954
 Vibration    22          0.660              1.770              1.762
 Vibration    23          0.666              1.753              1.689
 Vibration    24          0.669              1.744              1.656
 Vibration    25          0.676              1.722              1.573
 Vibration    26          0.685              1.697              1.488
 Vibration    27          0.704              1.640              1.323
 Vibration    28          0.708              1.630              1.295
 Vibration    29          0.711              1.621              1.274
 Vibration    30          0.727              1.574              1.164
 Vibration    31          0.740              1.538              1.089
 Vibration    32          0.756              1.496              1.007
 Vibration    33          0.768              1.465              0.954
 Vibration    34          0.774              1.450              0.929
 Vibration    35          0.776              1.444              0.919
 Vibration    36          0.794              1.398              0.849
 Vibration    37          0.824              1.323              0.746
 Vibration    38          0.866              1.225              0.631
 Vibration    39          0.872              1.212              0.616
 Vibration    40          0.917              1.114              0.520
 Vibration    41          0.974              1.002              0.426

 Optimization completed.
    -- Stationary point found.
 Normal termination of Gaussian 16 at Thu Jun  3 00:22:30 2021.
