 Gaussian 16, Revision A.03,
 Gaussian 16:  ES64L-G16RevA.03 25-Dec-2016

 ----------------------------------------------------------------------
 #p opt=(ts,noeigentest,calcfc) freq=noraman b3lyp jul-cc-pvdz pop=none
  empiricaldispersion=gd3bj
 ----------------------------------------------------------------------

 -----
 title
 -----
 Symbolic Z-matrix:
 Charge =  0 Multiplicity = 6

 SCF Done:  E(UB3LYP) =  -3531.53233567     A.U. after   24 cycles
 Optimization completed.
    -- Stationary point found.
 Normal termination of Gaussian 16 at Wed Jun  2 20:37:54 2021.

 ----------------------------------------------------------------------
 #P Geom=AllCheck Guess=TCheck SCRF=Check GenChk UB3LYP/Jul-CC-pVDZ Fre
 q
 ----------------------------------------------------------------------

 Structure from the checkpoint file:  "/scratch/kwaneu.2863101.bmbhpcps002/Gau-10409.chk"
 -----
 title
 -----
 Charge =  0 Multiplicity = 6

                         Standard orientation:
 ---------------------------------------------------------------------
 Center     Atomic      Atomic             Coordinates (Angstroms)
 Number     Number       Type             X           Y           Z
 ---------------------------------------------------------------------
      1          6           0       -1.381926    1.934002   -1.089506
      2          6           0       -1.592340    1.478824    0.237116
      3          6           0       -2.157543    2.362151    1.191333
      4          6           0       -2.511572    3.653124    0.828379
      5          6           0       -2.279774    4.094417   -0.483370
      6          6           0       -1.710227    3.239487   -1.434314
      7          6           0       -1.218769    0.149665    0.602155
      8          6           0       -1.101821   -0.958566   -0.404865
      9          6           0       -0.667481   -2.204146    0.408162
     10          6           0       -0.981941   -1.841201    1.870506
     11          6           0       -0.823172   -0.317006    1.901407
     12          6           0        0.881037    0.211409    1.921460
     13          6           0        0.866950    1.605655    2.541196
     14          8           0        1.336664    0.259099    0.648012
     15         26           0        2.682764   -0.214782   -0.534979
     16         17           0        4.461940    1.021143   -0.095230
     17          6           0        1.628909   -0.789127    2.793915
     18         17           0        1.704450    0.185169   -2.517455
     19         17           0        3.071789   -2.394496   -0.265124
     20          1           0       -2.343885    2.010269    2.204552
     21          1           0       -2.963480    4.323133    1.559384
     22          1           0       -2.544202    5.115142   -0.763294
     23          1           0       -1.516214    3.594917   -2.445647
     24          1           0       -0.907571    1.283297   -1.820699
     25          1           0       -0.378802   -0.684803   -1.186861
     26          6           0       -2.457803   -1.114491   -1.102972
     27          1           0       -1.185736   -3.109873    0.077265
     28          1           0        0.405875   -2.359892    0.261647
     29          1           0       -2.023545   -2.088987    2.118192
     30          1           0       -0.340645   -2.358645    2.588706
     31          1           0       -1.235124    0.206477    2.766770
     32          1           0        1.168178   -0.899977    3.784007
     33          1           0        1.718885   -1.762979    2.304693
     34          1           0        2.646641   -0.394001    2.924825
     35          1           0        0.466282    1.595519    3.563682
     36          1           0        1.908612    1.952783    2.570149
     37          1           0        0.303420    2.317231    1.929316
     38          8           0       -3.385598   -1.573588   -0.238698
     39          8           0       -2.677653   -0.847776   -2.259202
     40          6           0       -4.719973   -1.776627   -0.782026
     41          6           0       -5.599835   -2.257956    0.351360
     42          1           0       -5.064580   -0.825423   -1.208623
     43          1           0       -4.649724   -2.508756   -1.597019
     44          1           0       -6.618850   -2.426347   -0.024076
     45          1           0       -5.223397   -3.202428    0.767308
     46          1           0       -5.646670   -1.512756    1.157416
 ---------------------------------------------------------------------

 SCF Done:  E(UB3LYP) =  -3531.53233567     A.U. after    2 cycles

 Isotropic polarizability for W=    0.000000      312.24 Bohr**3.
 End of Minotr F.D. properties file   721 does not exist.

 ******    1 imaginary frequencies (negative Signs) ******

                      1                      2                      3
                      A                      A                      A
 Frequencies --   -263.0576                10.2386                22.4194
 Red. masses --      8.4894                 4.7450                12.3895
 Frc consts  --      0.3461                 0.0003                 0.0037
 IR Inten    --    523.2789                 0.2886                 0.1748

                      4                      5                      6
                      A                      A                      A
 Frequencies --     29.0029                34.2192                45.6987
 Red. masses --      7.0135                 8.5912                 5.4552
 Frc consts  --      0.0035                 0.0059                 0.0067
 IR Inten    --      2.3226                 0.6831                 0.4695

                      7                      8                      9
                      A                      A                      A
 Frequencies --     55.8996                60.2781                64.8787
 Red. masses --      4.9310                 4.4255                 3.1436
 Frc consts  --      0.0091                 0.0095                 0.0078
 IR Inten    --      1.7856                 0.5540                 0.6832

                     10                     11                     12
                      A                      A                      A
 Frequencies --     72.1165                84.1207                92.0925
 Red. masses --      5.8111                 4.7857                 4.4115
 Frc consts  --      0.0178                 0.0200                 0.0220
 IR Inten    --      0.6314                 3.2226                 5.5625

                     13                     14                     15
                      A                      A                      A
 Frequencies --     98.8574               109.5505               119.1714
 Red. masses --     14.3459                16.7689                 6.4599
 Frc consts  --      0.0826                 0.1186                 0.0541
 IR Inten    --      0.3526                 6.0327                13.0921

                     16                     17                     18
                      A                      A                      A
 Frequencies --    133.5736               142.0241               155.2819
 Red. masses --      6.4651                 4.8183                 4.2375
 Frc consts  --      0.0680                 0.0573                 0.0602
 IR Inten    --      2.4818                 0.0074                 1.6020

                     19                     20                     21
                      A                      A                      A
 Frequencies --    172.3722               193.5693               200.4667
 Red. masses --      3.7265                 4.2592                 3.2814
 Frc consts  --      0.0652                 0.0940                 0.0777
 IR Inten    --      4.6270                10.3414                 2.4212

                     22                     23                     24
                      A                      A                      A
 Frequencies --    247.7453               254.6665               260.8688
 Red. masses --      1.2796                 1.5082                 2.3205
 Frc consts  --      0.0463                 0.0576                 0.0930
 IR Inten    --      7.5291                 2.9499                10.1356

                     25                     26                     27
                      A                      A                      A
 Frequencies --    274.7562               289.9482               301.4635
 Red. masses --      2.7386                 1.6709                 2.9058
 Frc consts  --      0.1218                 0.0828                 0.1556
 IR Inten    --     24.4398                 0.8065                 4.6061

                     28                     29                     30
                      A                      A                      A
 Frequencies --    335.2220               344.4250               355.9785
 Red. masses --      6.8426                 2.3504                 3.7457
 Frc consts  --      0.4530                 0.1643                 0.2797
 IR Inten    --     16.0663                 9.5406                38.9948

                     31                     32                     33
                      A                      A                      A
 Frequencies --    369.6811               373.1974               389.1359
 Red. masses --      6.0791                 4.5715                 4.0936
 Frc consts  --      0.4895                 0.3751                 0.3652
 IR Inten    --     43.6762                54.8680                41.6042

                     34                     35                     36
                      A                      A                      A
 Frequencies --    392.3290               403.9215               408.6936
 Red. masses --     10.1835                 2.9944                 3.6833
 Frc consts  --      0.9235                 0.2878                 0.3625
 IR Inten    --     64.2507                 0.2768                 7.4983

                     37                     38                     39
                      A                      A                      A
 Frequencies --    449.2842               461.6144               474.9744
 Red. masses --      4.2353                 3.3896                 3.9859
 Frc consts  --      0.5037                 0.4256                 0.5298
 IR Inten    --      9.0788                 3.8112                26.7290

                     40                     41                     42
                      A                      A                      A
 Frequencies --    520.3218               538.4505               595.6547
 Red. masses --      2.8593                 3.9662                 4.6374
 Frc consts  --      0.4561                 0.6775                 0.9694
 IR Inten    --     60.2367                53.5804                 3.1180

                     43                     44                     45
                      A                      A                      A
 Frequencies --    621.5354               646.6311               674.6710
 Red. masses --      5.9685                 2.5981                 4.7125
 Frc consts  --      1.3585                 0.6400                 1.2638
 IR Inten    --      0.4336                 1.9185                10.1655

                     46                     47                     48
                      A                      A                      A
 Frequencies --    679.8213               732.3268               763.6391
 Red. masses --      1.6043                 3.5971                 2.9520
 Frc consts  --      0.4368                 1.1366                 1.0142
 IR Inten    --     38.0121                13.4220                19.2248

                     49                     50                     51
                      A                      A                      A
 Frequencies --    804.6970               808.7691               836.9379
 Red. masses --      1.8569                 1.4903                 1.2870
 Frc consts  --      0.7084                 0.5743                 0.5312
 IR Inten    --      6.2300                 2.5087                 3.2166

                     52                     53                     54
                      A                      A                      A
 Frequencies --    842.1832               855.3998               871.0728
 Red. masses --      3.1144                 3.6035                 2.2580
 Frc consts  --      1.3015                 1.5535                 1.0094
 IR Inten    --     40.0713               102.3402                 5.5753

                     55                     56                     57
                      A                      A                      A
 Frequencies --    888.4844               917.4658               926.4147
 Red. masses --      4.2687                 2.3910                 1.6035
 Frc consts  --      1.9854                 1.1858                 0.8108
 IR Inten    --     10.0169                10.6202                41.4548

                     58                     59                     60
                      A                      A                      A
 Frequencies --    933.3773               955.5894               972.7946
 Red. masses --      1.9837                 1.5120                 1.8912
 Frc consts  --      1.0182                 0.8135                 1.0545
 IR Inten    --     62.1205                 9.4220               168.0451

                     61                     62                     63
                      A                      A                      A
 Frequencies --    989.3834               992.1297               994.3546
 Red. masses --      1.4109                 1.5500                 2.4393
 Frc consts  --      0.8137                 0.8989                 1.4210
 IR Inten    --      1.8911                 3.6185               102.0091

                     64                     65                     66
                      A                      A                      A
 Frequencies --   1006.4471              1011.8857              1016.1041
 Red. masses --      4.2425                 1.6276                 1.4515
 Frc consts  --      2.5319                 0.9819                 0.8830
 IR Inten    --      3.0566                67.4817                45.0441

                     67                     68                     69
                      A                      A                      A
 Frequencies --   1030.4825              1047.0796              1051.9756
 Red. masses --      1.8468                 2.0574                 2.1158
 Frc consts  --      1.1555                 1.3290                 1.3796
 IR Inten    --     15.2125                 9.1646               113.1698

                     70                     71                     72
                      A                      A                      A
 Frequencies --   1057.7724              1073.1187              1109.0039
 Red. masses --      2.3422                 1.9043                 1.6187
 Frc consts  --      1.5440                 1.2920                 1.1729
 IR Inten    --     45.1093               118.7904                 6.4517

                     73                     74                     75
                      A                      A                      A
 Frequencies --   1123.3291              1131.6333              1154.8059
 Red. masses --      1.4912                 2.1794                 1.9591
 Frc consts  --      1.1087                 1.6444                 1.5393
 IR Inten    --     35.7113                12.1687               209.1539

                     76                     77                     78
                      A                      A                      A
 Frequencies --   1170.3725              1181.2992              1187.4646
 Red. masses --      1.5521                 1.0943                 1.4169
 Frc consts  --      1.2526                 0.8997                 1.1772
 IR Inten    --      3.0515                 3.9220                11.9900

                     79                     80                     81
                      A                      A                      A
 Frequencies --   1210.4002              1212.8763              1225.8572
 Red. masses --      1.2586                 2.8328                 1.7024
 Frc consts  --      1.0864                 2.4553                 1.5073
 IR Inten    --      7.2328                70.0351                28.4559

                     82                     83                     84
                      A                      A                      A
 Frequencies --   1244.3735              1263.0915              1283.6672
 Red. masses --      2.6019                 1.8052                 1.1011
 Frc consts  --      2.3738                 1.6969                 1.0690
 IR Inten    --    261.4165                18.0333                 2.5669

                     85                     86                     87
                      A                      A                      A
 Frequencies --   1286.5128              1296.0016              1309.1974
 Red. masses --      2.6516                 1.5220                 1.6099
 Frc consts  --      2.5858                 1.5062                 1.6258
 IR Inten    --    193.0415                39.1982                10.3385

                     88                     89                     90
                      A                      A                      A
 Frequencies --   1329.9353              1350.0468              1364.2500
 Red. masses --      1.6855                 1.5309                 1.5393
 Frc consts  --      1.7565                 1.6440                 1.6880
 IR Inten    --     22.1906                48.3109                22.0066

                     91                     92                     93
                      A                      A                      A
 Frequencies --   1377.8550              1381.2543              1385.7948
 Red. masses --      1.4975                 3.1567                 1.2733
 Frc consts  --      1.6751                 3.5483                 1.4407
 IR Inten    --      2.1438                 2.2976                14.8506

                     94                     95                     96
                      A                      A                      A
 Frequencies --   1401.0852              1414.2518              1460.3918
 Red. masses --      1.2590                 1.4105                 2.2108
 Frc consts  --      1.4561                 1.6622                 2.7781
 IR Inten    --     13.8676                11.4974               120.5851

                     97                     98                     99
                      A                      A                      A
 Frequencies --   1462.4188              1474.5533              1475.7448
 Red. masses --      1.0963                 1.1523                 1.0418
 Frc consts  --      1.3814                 1.4762                 1.3367
 IR Inten    --      9.1079                 0.4002                 6.4838

                    100                    101                    102
                      A                      A                      A
 Frequencies --   1478.1340              1481.1005              1486.2285
 Red. masses --      1.9138                 1.1091                 1.0528
 Frc consts  --      2.4637                 1.4335                 1.3702
 IR Inten    --     58.5242                 8.3632                 3.3846

                    103                    104                    105
                      A                      A                      A
 Frequencies --   1490.5840              1497.8313              1507.6556
 Red. masses --      1.0651                 1.0982                 1.0854
 Frc consts  --      1.3943                 1.4516                 1.4535
 IR Inten    --      2.0687                 4.5827                 2.7972

                    106                    107                    108
                      A                      A                      A
 Frequencies --   1510.5802              1538.7685              1605.0536
 Red. masses --      1.1186                 2.9961                 4.7907
 Frc consts  --      1.5039                 4.1798                 7.2715
 IR Inten    --      3.3116               109.6120                 1.1395

                    109                    110                    111
                      A                      A                      A
 Frequencies --   1642.3415              1791.6036              3036.3977
 Red. masses --      5.6000                12.0973                 1.0792
 Frc consts  --      8.8995                22.8782                 5.8626
 IR Inten    --    147.4180               227.8935                94.0040

                    112                    113                    114
                      A                      A                      A
 Frequencies --   3036.5146              3040.7623              3042.7293
 Red. masses --      1.0408                 1.0351                 1.0373
 Frc consts  --      5.6541                 5.6392                 5.6581
 IR Inten    --      7.6825                11.3003                21.1777

                    115                    116                    117
                      A                      A                      A
 Frequencies --   3057.9535              3064.5530              3090.0838
 Red. masses --      1.0708                 1.0582                 1.0610
 Frc consts  --      5.8995                 5.8556                 5.9693
 IR Inten    --     28.8056                13.7950                15.7370

                    118                    119                    120
                      A                      A                      A
 Frequencies --   3105.9664              3110.1242              3118.8052
 Red. masses --      1.1063                 1.1014                 1.1017
 Frc consts  --      6.2881                 6.2772                 6.3136
 IR Inten    --      0.0335                 4.3701                21.8801

                    121                    122                    123
                      A                      A                      A
 Frequencies --   3120.3946              3130.1154              3137.5577
 Red. masses --      1.1014                 1.1067                 1.0950
 Frc consts  --      6.3184                 6.3883                 6.3514
 IR Inten    --     21.4221                28.1589                17.2724

                    124                    125                    126
                      A                      A                      A
 Frequencies --   3139.9712              3144.8170              3146.0017
 Red. masses --      1.0918                 1.1027                 1.0993
 Frc consts  --      6.3425                 6.4256                 6.4105
 IR Inten    --      3.0144                 5.7720                14.4279

                    127                    128                    129
                      A                      A                      A
 Frequencies --   3160.3514              3180.9799              3194.3505
 Red. masses --      1.1009                 1.0870                 1.0901
 Frc consts  --      6.4784                 6.4802                 6.5536
 IR Inten    --      4.5725                 0.5273                 3.6579

                    130                    131                    132
                      A                      A                      A
 Frequencies --   3203.4670              3209.9767              3224.4580
 Red. masses --      1.0936                 1.0967                 1.0953
 Frc consts  --      6.6120                 6.6582                 6.7099
 IR Inten    --      4.3352                 3.7396                12.4304

 - Thermochemistry -
 -------------------
 Temperature   298.150 Kelvin.  Pressure   1.00000 Atm.
 Atom     1 has atomic number  6 and mass  12.00000

 Molecular mass:   434.99839 amu.
 Principal axes and moments of inertia in atomic units:
                           1         2         3
     Eigenvalues --  7631.09924********************
           X            0.99979   0.01771   0.00991
           Y           -0.01757   0.99976  -0.01340
           Z           -0.01014   0.01323   0.99986
 This molecule is an asymmetric top.
 Rotational symmetry number  1.
 Warning -- assumption of classical behavior for rotation
           may cause significant error
 Rotational temperatures (Kelvin)      0.01135     0.00610     0.00543
 Rotational constants (GHZ):           0.23650     0.12701     0.11308
    1 imaginary frequencies ignored.
 Zero-point vibrational energy     944657.4 (Joules/Mol)
                                  225.77854 (Kcal/Mol)
 Warning -- explicit consideration of  41 degrees of freedom as
           vibrations may cause significant error
 Vibrational temperatures:     14.73    32.26    41.73    49.23    65.75
          (Kelvin)             80.43    86.73    93.35   103.76   121.03
                              132.50   142.23   157.62   171.46   192.18
                              204.34   223.42   248.01   278.50   288.43
                              356.45   366.41   375.33   395.31   417.17
                              433.74   482.31   495.55   512.17   531.89
                              536.95   559.88   564.47   581.15   588.02
                              646.42   664.16   683.38   748.63   774.71
                              857.01   894.25   930.36   970.70   978.11
                             1053.65  1098.71  1157.78  1163.64  1204.17
                             1211.71  1230.73  1253.28  1278.33  1320.03
                             1332.90  1342.92  1374.88  1399.63  1423.50
                             1427.45  1430.65  1448.05  1455.88  1461.95
                             1482.63  1506.51  1513.56  1521.90  1543.98
                             1595.61  1616.22  1628.17  1661.51  1683.91
                             1699.63  1708.50  1741.50  1745.06  1763.74
                             1790.38  1817.31  1846.91  1851.00  1864.66
                             1883.64  1913.48  1942.42  1962.85  1982.43
                             1987.32  1993.85  2015.85  2034.79  2101.18
                             2104.09  2121.55  2123.27  2126.71  2130.97
                             2138.35  2144.62  2155.05  2169.18  2173.39
                             2213.94  2309.31  2362.96  2577.72  4368.70
                             4368.87  4374.98  4377.81  4399.71  4409.21
                             4445.94  4468.79  4474.78  4487.27  4489.55
                             4503.54  4514.25  4517.72  4524.69  4526.39
                             4547.04  4576.72  4595.96  4609.07  4618.44
                             4639.28

 Zero-point correction=                           0.359801 (Hartree/Particle)
 Thermal correction to Energy=                    0.386922
 Thermal correction to Enthalpy=                  0.387866
 Thermal correction to Gibbs Free Energy=         0.296269
 Sum of electronic and zero-point Energies=          -3531.172535
 Sum of electronic and thermal Energies=             -3531.145414
 Sum of electronic and thermal Enthalpies=           -3531.144470
 Sum of electronic and thermal Free Energies=        -3531.236066

                     E (Thermal)             CV                S
                      KCal/Mol        Cal/Mol-Kelvin    Cal/Mol-Kelvin
 Total                  242.797             96.800            192.781
 Electronic               0.000              0.000              3.561
 Translational            0.889              2.981             44.100
 Rotational               0.889              2.981             35.802
 Vibrational            241.020             90.838            109.318
 Vibration     1          0.593              1.987              7.964
 Vibration     2          0.593              1.985              6.407
 Vibration     3          0.593              1.984              5.896
 Vibration     4          0.594              1.983              5.568
 Vibration     5          0.595              1.979              4.995
 Vibration     6          0.596              1.975              4.597
 Vibration     7          0.597              1.973              4.448
 Vibration     8          0.597              1.971              4.303
 Vibration     9          0.598              1.967              4.095
 Vibration    10          0.601              1.960              3.792
 Vibration    11          0.602              1.955              3.615
 Vibration    12          0.604              1.950              3.477
 Vibration    13          0.606              1.942              3.277
 Vibration    14          0.609              1.933              3.114
 Vibration    15          0.613              1.920              2.894
 Vibration    16          0.615              1.911              2.776
 Vibration    17          0.620              1.897              2.606
 Vibration    18          0.626              1.876              2.409
 Vibration    19          0.635              1.849              2.193
 Vibration    20          0.638              1.839              2.129
 Vibration    21          0.661              1.767              1.747
 Vibration    22          0.665              1.755              1.698
 Vibration    23          0.669              1.744              1.656
 Vibration    24          0.677              1.720              1.566
 Vibration    25          0.686              1.692              1.474
 Vibration    26          0.693              1.671              1.409
 Vibration    27          0.716              1.605              1.235
 Vibration    28          0.723              1.587              1.192
 Vibration    29          0.731              1.563              1.140
 Vibration    30          0.742              1.535              1.081
 Vibration    31          0.745              1.527              1.067
 Vibration    32          0.757              1.493              1.003
 Vibration    33          0.760              1.487              0.991
 Vibration    34          0.769              1.462              0.948
 Vibration    35          0.773              1.451              0.931
 Vibration    36          0.808              1.362              0.798
 Vibration    37          0.819              1.335              0.761
 Vibration    38          0.832              1.306              0.724
 Vibration    39          0.875              1.205              0.609
 Vibration    40          0.893              1.165              0.569
 Vibration    41          0.953              1.041              0.457

 Optimization completed.
    -- Stationary point found.
 Normal termination of Gaussian 16 at Thu Jun  3 00:22:45 2021.
