 Gaussian 16, Revision A.03,
 Gaussian 16:  ES64L-G16RevA.03 25-Dec-2016

 ----------------------------------------------------------------------
 #p opt=(calcfc,maxstep=3) freq=noraman ub3lyp empiricaldispersion=gd3b
 j jul-cc-pvdz pop=cm5
 ----------------------------------------------------------------------

 -----
 title
 -----
 Symbolic Z-matrix:
 Charge =  0 Multiplicity = 6

 SCF Done:  E(UB3LYP) =  -3531.54193019     A.U. after   25 cycles
 Optimization completed.
    -- Stationary point found.
 Normal termination of Gaussian 16 at Mon Jun 14 12:06:34 2021.

 ----------------------------------------------------------------------
 #P Geom=AllCheck Guess=TCheck SCRF=Check GenChk UB3LYP/Jul-CC-pVDZ Fre
 q
 ----------------------------------------------------------------------

 Structure from the checkpoint file:  "/scratch/kwaneu.2872318.bmbhpcps002/Gau-35204.chk"
 -----
 title
 -----
 Charge =  0 Multiplicity = 6

                         Standard orientation:
 ---------------------------------------------------------------------
 Center     Atomic      Atomic             Coordinates (Angstroms)
 Number     Number       Type             X           Y           Z
 ---------------------------------------------------------------------
      1          6           0        1.314060   -1.671280    0.146698
      2          6           0        0.843815   -0.598615    0.960114
      3          6           0        0.089840   -0.911049    2.128199
      4          6           0       -0.180807   -2.226925    2.462046
      5          6           0        0.281037   -3.259721    1.638515
      6          6           0        1.030778   -2.981045    0.484855
      7          6           0        1.071825    0.746587    0.595387
      8          6           0        2.028110    1.183375   -0.492815
      9          6           0        1.894053    2.727056   -0.546040
     10          6           0        1.266161    3.115567    0.805816
     11          6           0        0.426752    1.891601    1.206728
     12          6           0       -1.215344    1.987549    0.730280
     13          6           0       -1.855847    2.887890    1.794079
     14          8           0       -1.762381    0.739756    0.803267
     15         26           0       -2.443930   -0.414746   -0.518144
     16         17           0       -4.249415    0.529055   -1.383750
     17          6           0       -1.325258    2.616623   -0.660909
     18         17           0       -2.881112   -2.371625    0.429084
     19         17           0       -0.857794   -0.642697   -2.110339
     20          1           0       -0.271902   -0.112801    2.767589
     21          1           0       -0.776512   -2.455430    3.343825
     22          1           0        0.040862   -4.293934    1.887271
     23          1           0        1.357447   -3.794077   -0.161988
     24          1           0        1.856321   -1.457110   -0.768684
     25          1           0        1.774371    0.693315   -1.440286
     26          6           0        3.447860    0.779810   -0.087394
     27          1           0        2.863543    3.210253   -0.706533
     28          1           0        1.242107    2.999519   -1.381367
     29          1           0        2.051890    3.270662    1.556164
     30          1           0        0.676743    4.036792    0.750328
     31          1           0        0.305375    1.768540    2.285944
     32          1           0       -0.908902    3.629657   -0.684963
     33          1           0       -0.847471    1.998323   -1.426651
     34          1           0       -2.392220    2.682454   -0.908663
     35          1           0       -1.346860    3.857048    1.877144
     36          1           0       -2.901344    3.062644    1.507767
     37          1           0       -1.845894    2.385680    2.769031
     38          8           0        3.951517   -0.154839   -0.906973
     39          8           0        4.039627    1.258151    0.855645
     40          6           0        5.288323   -0.636908   -0.584162
     41          6           0        5.629721   -1.719749   -1.584391
     42          1           0        5.978767    0.215088   -0.633715
     43          1           0        5.275703   -1.006027    0.449616
     44          1           0        6.637722   -2.104300   -1.374920
     45          1           0        4.919585   -2.555249   -1.517564
     46          1           0        5.613744   -1.327241   -2.610061
 ---------------------------------------------------------------------

 SCF Done:  E(UB3LYP) =  -3531.54193019     A.U. after    1 cycles

 The electronic state is 6-A.
 Alpha  occ. eigenvalues -- -256.17251-101.49454-101.49047-101.48803 -30.16667
 Alpha  occ. eigenvalues --  -26.01992 -26.01873 -26.01833 -19.22751 -19.17143
 Alpha  occ. eigenvalues --  -19.14477 -10.35227 -10.28832 -10.28464 -10.27259
 Alpha  occ. eigenvalues --  -10.24638 -10.24611 -10.24565 -10.24370 -10.24217
 Alpha  occ. eigenvalues --  -10.23290 -10.22982 -10.22802 -10.21921 -10.21623
 Alpha  occ. eigenvalues --  -10.21163 -10.19366 -10.18576  -9.41141  -9.40767
 Alpha  occ. eigenvalues --   -9.40514  -7.17015  -7.16693  -7.16666  -7.16634
 Alpha  occ. eigenvalues --   -7.16388  -7.16319  -7.16302  -7.16064  -7.16053
 Alpha  occ. eigenvalues --   -3.64365  -2.41912  -2.41685  -2.41567  -1.14448
 Alpha  occ. eigenvalues --   -1.05788  -1.02322  -0.92297  -0.89164  -0.81802
 Alpha  occ. eigenvalues --   -0.81755  -0.79653  -0.79170  -0.77170  -0.76441
 Alpha  occ. eigenvalues --   -0.76112  -0.75939  -0.74478  -0.71096  -0.68508
 Alpha  occ. eigenvalues --   -0.66013  -0.65334  -0.62393  -0.60968  -0.58847
 Alpha  occ. eigenvalues --   -0.57418  -0.56309  -0.54886  -0.52807  -0.52093
 Alpha  occ. eigenvalues --   -0.51247  -0.49989  -0.49621  -0.48660  -0.47905
 Alpha  occ. eigenvalues --   -0.47320  -0.46723  -0.46082  -0.45764  -0.44775
 Alpha  occ. eigenvalues --   -0.44609  -0.44205  -0.43749  -0.43340  -0.42982
 Alpha  occ. eigenvalues --   -0.42780  -0.42429  -0.41812  -0.41313  -0.40179
 Alpha  occ. eigenvalues --   -0.39854  -0.39657  -0.39461  -0.38599  -0.38407
 Alpha  occ. eigenvalues --   -0.38266  -0.37749  -0.37553  -0.37314  -0.36149
 Alpha  occ. eigenvalues --   -0.34684  -0.34055  -0.32539  -0.31493  -0.31279
 Alpha  occ. eigenvalues --   -0.30799  -0.30174  -0.29544  -0.28182  -0.27613
 Alpha  occ. eigenvalues --   -0.27438  -0.27220  -0.26729  -0.26318  -0.25979
 Alpha virt. eigenvalues --   -0.15547  -0.04943  -0.03538  -0.02860  -0.02371
 Alpha virt. eigenvalues --   -0.01424  -0.00949  -0.00128   0.00368   0.00792
 Alpha virt. eigenvalues --    0.01128   0.01507   0.01988   0.02525   0.02757

  Beta  occ. eigenvalues -- -256.17064-101.49291-101.48865-101.48609 -30.07781
  Beta  occ. eigenvalues --  -25.94542 -25.94482 -25.94447 -19.22751 -19.17143
  Beta  occ. eigenvalues --  -19.13842 -10.35227 -10.28821 -10.28455 -10.27259
  Beta  occ. eigenvalues --  -10.24629 -10.24613 -10.24566 -10.24368 -10.24209
  Beta  occ. eigenvalues --  -10.23274 -10.22984 -10.22804 -10.21921 -10.21622
  Beta  occ. eigenvalues --  -10.21163 -10.19346 -10.18565  -9.40981  -9.40588
  Beta  occ. eigenvalues --   -9.40323  -7.16728  -7.16481  -7.16461  -7.16344
  Beta  occ. eigenvalues --   -7.16070  -7.16067  -7.16057  -7.15801  -7.15790
  Beta  occ. eigenvalues --   -3.43641  -2.19974  -2.19886  -2.19791  -1.14448
  Beta  occ. eigenvalues --   -1.05788  -1.01084  -0.92251  -0.89140  -0.81758
  Beta  occ. eigenvalues --   -0.81742  -0.79623  -0.79031  -0.76094  -0.75860
  Beta  occ. eigenvalues --   -0.75216  -0.74785  -0.74448  -0.71034  -0.68502
  Beta  occ. eigenvalues --   -0.65999  -0.65324  -0.62351  -0.60865  -0.58802
  Beta  occ. eigenvalues --   -0.57200  -0.55984  -0.54709  -0.52804  -0.52039
  Beta  occ. eigenvalues --   -0.50983  -0.49845  -0.49259  -0.48358  -0.47185
  Beta  occ. eigenvalues --   -0.46969  -0.46619  -0.45561  -0.45120  -0.43440
  Beta  occ. eigenvalues --   -0.43103  -0.42488  -0.41932  -0.41284  -0.40635
  Beta  occ. eigenvalues --   -0.39904  -0.39652  -0.39458  -0.38600  -0.38380
  Beta  occ. eigenvalues --   -0.38222  -0.37755  -0.37591  -0.37304  -0.36041
  Beta  occ. eigenvalues --   -0.34861  -0.34053  -0.32857  -0.32647  -0.32429
  Beta  occ. eigenvalues --   -0.31060  -0.30664  -0.30069  -0.29792  -0.29376
  Beta  occ. eigenvalues --   -0.29171  -0.28847  -0.27215  -0.26299  -0.26026
  Beta virt. eigenvalues --   -0.15639  -0.11225  -0.10879  -0.10113  -0.09862
  Beta virt. eigenvalues --   -0.08925  -0.04902  -0.03518  -0.02821  -0.02362
  Beta virt. eigenvalues --   -0.01414  -0.00941  -0.00103   0.00375   0.00803

 Mulliken charges and spin densities:
               1          2
     1  C   -0.578384  -0.009925
     2  C    3.145829   0.008885
     3  C   -0.616318  -0.016651
     4  C   -0.024895   0.005277
     5  C    0.338729   0.012141
     6  C    0.080146  -0.001952
     7  C   -0.767125   0.022995
     8  C   -0.116419  -0.002163
     9  C    0.719394   0.000586
    10  C    0.731548   0.001353
    11  C   -0.026349   0.015462
    12  C   -0.445576  -0.022025
    13  C    0.402107   0.013897
    14  O   -0.616009   0.206469
    15  Fe   0.789398   4.039987
    16  Cl  -0.429049   0.268912
    17  C    0.499026   0.002965
    18  Cl  -0.470267   0.246153
    19  Cl  -0.553546   0.205358
    20  H   -0.244289   0.000294
    21  H   -0.166855  -0.000041
    22  H   -0.148239  -0.000117
    23  H   -0.167412   0.000107
    24  H   -0.233847  -0.000107
    25  H   -0.213060   0.000563
    26  C    0.668798   0.002207
    27  H   -0.168665  -0.000019
    28  H   -0.098082  -0.000042
    29  H   -0.112857   0.000557
    30  H   -0.154453   0.000400
    31  H   -0.272498  -0.000853
    32  H   -0.043749  -0.000909
    33  H    0.041767  -0.000564
    34  H   -0.018758  -0.001021
    35  H   -0.015100   0.002550
    36  H   -0.005648  -0.000710
    37  H   -0.014418  -0.000211
    38  O   -0.624733   0.000033
    39  O   -0.547388   0.000208
    40  C    0.435030  -0.000056
    41  C    0.094718  -0.000001
    42  H   -0.045160  -0.000001
    43  H   -0.034519   0.000001
    44  H   -0.009404   0.000003
    45  H    0.014594   0.000006
    46  H    0.021987   0.000003
 Sum of Mulliken charges =  -0.00000   5.00000

 Dipole moment (field-independent basis, Debye):
    X=             10.2007    Y=              1.2489    Z=              3.7278  Tot=             10.9321
 Quadrupole moment (field-independent basis, Debye-Ang):
   XX=           -191.2858   YY=           -158.5979   ZZ=           -176.6049
   XY=            -14.7915   XZ=            -17.6718   YZ=             -4.2524

  Exact polarizability: 331.554 -13.598 337.258  -6.364 -10.743 247.290
 Approx polarizability: 473.631 -20.665 569.809 -27.021 -19.175 430.949

                      1                      2                      3
                      A                      A                      A
 Frequencies --     12.7791                21.1657                32.7775
 Red. masses --      4.3691                 7.7212                 4.5375
 Frc consts  --      0.0004                 0.0020                 0.0029
 IR Inten    --      0.4246                 2.6966                 0.5366

                      4                      5                      6
                      A                      A                      A
 Frequencies --     45.7447                54.5967                63.0436
 Red. masses --      6.4131                 7.1227                 3.1073
 Frc consts  --      0.0079                 0.0125                 0.0073
 IR Inten    --      0.4276                 1.4041                 0.2832

                      7                      8                      9
                      A                      A                      A
 Frequencies --     72.8091                80.6684                84.0317
 Red. masses --      6.8898                 6.8570                 6.6212
 Frc consts  --      0.0215                 0.0263                 0.0275
 IR Inten    --      1.1951                 0.2520                 0.8680

                     10                     11                     12
                      A                      A                      A
 Frequencies --     99.1673               106.7810               115.4686
 Red. masses --      5.2143                 9.0490                11.0082
 Frc consts  --      0.0302                 0.0608                 0.0865
 IR Inten    --      0.9416                 1.7351                 2.0567

                     13                     14                     15
                      A                      A                      A
 Frequencies --    125.1863               129.8108               144.4293
 Red. masses --     16.2734                11.1447                 3.3988
 Frc consts  --      0.1503                 0.1106                 0.0418
 IR Inten    --      1.8668                 4.3856                 2.6913

                     16                     17                     18
                      A                      A                      A
 Frequencies --    151.3156               164.3777               179.7353
 Red. masses --      4.2008                 4.2369                 3.7576
 Frc consts  --      0.0567                 0.0675                 0.0715
 IR Inten    --      1.2201                 1.1859                 8.6062

                     19                     20                     21
                      A                      A                      A
 Frequencies --    181.9733               211.3580               220.6719
 Red. masses --      4.3341                 3.0385                 2.9403
 Frc consts  --      0.0846                 0.0800                 0.0844
 IR Inten    --      4.7019                 3.1724                55.8954

                     22                     23                     24
                      A                      A                      A
 Frequencies --    244.9689               259.6786               283.6410
 Red. masses --      1.2670                 1.4975                 2.8449
 Frc consts  --      0.0448                 0.0595                 0.1349
 IR Inten    --     14.4926                 3.1258                16.2928

                     25                     26                     27
                      A                      A                      A
 Frequencies --    293.3920               302.8307               314.4455
 Red. masses --      3.1570                 4.7759                 3.7269
 Frc consts  --      0.1601                 0.2581                 0.2171
 IR Inten    --     32.8467                29.7276                 7.9884

                     28                     29                     30
                      A                      A                      A
 Frequencies --    326.4683               330.1344               348.4847
 Red. masses --      5.1030                 1.2891                 4.1703
 Frc consts  --      0.3205                 0.0828                 0.2984
 IR Inten    --     19.9448                 6.7959                13.0346

                     31                     32                     33
                      A                      A                      A
 Frequencies --    364.8717               372.8096               392.2678
 Red. masses --      3.9354                 5.8040                12.2494
 Frc consts  --      0.3087                 0.4753                 1.1105
 IR Inten    --     57.4776                47.0602                55.6828

                     34                     35                     36
                      A                      A                      A
 Frequencies --    396.9332               401.5204               412.7395
 Red. masses --      3.5183                 3.1649                 4.0095
 Frc consts  --      0.3266                 0.3006                 0.4024
 IR Inten    --     34.4839                11.3799                 2.5233

                     37                     38                     39
                      A                      A                      A
 Frequencies --    438.2161               458.7704               511.9229
 Red. masses --      3.5079                 3.3214                 3.1522
 Frc consts  --      0.3969                 0.4119                 0.4867
 IR Inten    --      6.2280                49.4579                 1.0920

                     40                     41                     42
                      A                      A                      A
 Frequencies --    526.7035               575.7186               618.3719
 Red. masses --      3.8124                 4.6234                 5.7546
 Frc consts  --      0.6231                 0.9029                 1.2965
 IR Inten    --    210.3574                60.2399                 2.0592

                     43                     44                     45
                      A                      A                      A
 Frequencies --    621.9519               643.5516               659.6338
 Red. masses --      5.6883                 2.6204                 1.4787
 Frc consts  --      1.2964                 0.6394                 0.3791
 IR Inten    --      3.9175                 4.2053                54.1235

                     46                     47                     48
                      A                      A                      A
 Frequencies --    674.3461               753.9854               769.0734
 Red. masses --      4.3509                 4.6352                 2.6631
 Frc consts  --      1.1657                 1.5525                 0.9281
 IR Inten    --      2.3740                12.4285                 5.2329

                     49                     50                     51
                      A                      A                      A
 Frequencies --    805.9708               808.0623               813.3129
 Red. masses --      1.5885                 1.5306                 1.5528
 Frc consts  --      0.6079                 0.5889                 0.6052
 IR Inten    --     70.0720                63.4308                31.3416

                     52                     53                     54
                      A                      A                      A
 Frequencies --    833.0139               839.9554               864.0760
 Red. masses --      4.0327                 2.8317                 2.7474
 Frc consts  --      1.6487                 1.1771                 1.2086
 IR Inten    --     10.8721                 0.8838                46.3797

                     55                     56                     57
                      A                      A                      A
 Frequencies --    893.1561               908.6861               926.3203
 Red. masses --      3.1432                 2.6216                 1.5643
 Frc consts  --      1.4773                 1.2754                 0.7909
 IR Inten    --      8.8352                 1.7565                 3.5569

                     58                     59                     60
                      A                      A                      A
 Frequencies --    944.7004               950.9605               979.3656
 Red. masses --      2.7583                 1.4532                 1.4286
 Frc consts  --      1.4504                 0.7743                 0.8073
 IR Inten    --      3.8365                 3.5791                 3.4230

                     61                     62                     63
                      A                      A                      A
 Frequencies --    984.6943              1000.2169              1003.2195
 Red. masses --      2.6189                 2.1447                 3.7426
 Frc consts  --      1.4961                 1.2642                 2.2193
 IR Inten    --     38.7116                57.7142                 7.4195

                     64                     65                     66
                      A                      A                      A
 Frequencies --   1007.8317              1009.1551              1025.0845
 Red. masses --      1.5158                 1.5124                 1.9891
 Frc consts  --      0.9071                 0.9075                 1.2315
 IR Inten    --      1.9710                 3.1039                86.9640

                     67                     68                     69
                      A                      A                      A
 Frequencies --   1039.2422              1048.6701              1054.0692
 Red. masses --      2.1886                 2.1913                 1.8888
 Frc consts  --      1.3927                 1.4198                 1.2365
 IR Inten    --     50.5513                 7.5904                52.0800

                     70                     71                     72
                      A                      A                      A
 Frequencies --   1062.0739              1080.4766              1120.2227
 Red. masses --      1.5218                 1.9904                 1.5900
 Frc consts  --      1.0114                 1.3691                 1.1756
 IR Inten    --     97.4771                33.2309                 8.3527

                     73                     74                     75
                      A                      A                      A
 Frequencies --   1132.0731              1139.9045              1163.3536
 Red. masses --      2.1645                 1.4407                 1.8571
 Frc consts  --      1.6344                 1.1029                 1.4808
 IR Inten    --      9.3804                76.0975                32.6911

                     76                     77                     78
                      A                      A                      A
 Frequencies --   1169.3555              1185.4597              1193.5274
 Red. masses --      1.5554                 1.0983                 1.4701
 Frc consts  --      1.2531                 0.9093                 1.2338
 IR Inten    --      3.3555                 0.3995                43.1014

                     79                     80                     81
                      A                      A                      A
 Frequencies --   1205.1024              1218.7595              1232.4238
 Red. masses --      1.7702                 1.2255                 2.7513
 Frc consts  --      1.5147                 1.0725                 2.4621
 IR Inten    --    177.1899                48.0561                46.6966

                     82                     83                     84
                      A                      A                      A
 Frequencies --   1247.3399              1262.8978              1272.5086
 Red. masses --      2.0721                 2.1165                 1.5694
 Frc consts  --      1.8995                 1.9889                 1.4973
 IR Inten    --     46.1315                85.2676                78.5871

                     85                     86                     87
                      A                      A                      A
 Frequencies --   1283.5006              1298.6226              1316.8308
 Red. masses --      1.1061                 1.8438                 1.7635
 Frc consts  --      1.0736                 1.8320                 1.8018
 IR Inten    --      2.5249               137.2526                73.8705

                     88                     89                     90
                      A                      A                      A
 Frequencies --   1327.1146              1345.8670              1365.1069
 Red. masses --      1.5423                 1.4243                 1.5934
 Frc consts  --      1.6004                 1.5201                 1.7495
 IR Inten    --     10.2004                43.4714                 8.7156

                     91                     92                     93
                      A                      A                      A
 Frequencies --   1381.2545              1385.3853              1399.5533
 Red. masses --      1.3563                 1.2534                 5.7087
 Frc consts  --      1.5246                 1.4174                 6.5882
 IR Inten    --     12.7909                14.6114                16.9563

                     94                     95                     96
                      A                      A                      A
 Frequencies --   1408.5029              1415.9090              1459.1357
 Red. masses --      1.2580                 1.4472                 2.3692
 Frc consts  --      1.4705                 1.7094                 2.9719
 IR Inten    --      2.7753                10.8484               125.8708

                     97                     98                     99
                      A                      A                      A
 Frequencies --   1469.2039              1474.6712              1475.5263
 Red. masses --      1.0496                 1.1683                 1.4850
 Frc consts  --      1.3349                 1.4969                 1.9049
 IR Inten    --      1.4651                16.8545                24.7534

                    100                    101                    102
                      A                      A                      A
 Frequencies --   1480.9522              1485.6672              1485.8309
 Red. masses --      1.2736                 1.0810                 1.0666
 Frc consts  --      1.6457                 1.4058                 1.3874
 IR Inten    --     21.2702                 8.8614                 1.4372

                    103                    104                    105
                      A                      A                      A
 Frequencies --   1489.6515              1506.5351              1507.4412
 Red. masses --      1.0773                 1.0844                 1.0817
 Frc consts  --      1.4085                 1.4502                 1.4483
 IR Inten    --      8.4054                10.1959                 5.6070

                    106                    107                    108
                      A                      A                      A
 Frequencies --   1509.9950              1548.9287              1599.2501
 Red. masses --      1.0546                 3.6007                 4.4687
 Frc consts  --      1.4168                 5.0898                 6.7339
 IR Inten    --     10.3244               119.4511                 2.5896

                    109                    110                    111
                      A                      A                      A
 Frequencies --   1647.3129              1771.6901              3039.0018
 Red. masses --      5.6145                10.9654                 1.0337
 Frc consts  --      8.9766                20.2793                 5.6249
 IR Inten    --    206.1334               192.6307                16.3014

                    112                    113                    114
                      A                      A                      A
 Frequencies --   3042.2479              3055.9380              3065.6638
 Red. masses --      1.0351                 1.0359                 1.0582
 Frc consts  --      5.6445                 5.6998                 5.8598
 IR Inten    --     12.3841                14.0575                13.5271

                    115                    116                    117
                      A                      A                      A
 Frequencies --   3071.5443              3090.2504              3095.5348
 Red. masses --      1.0640                 1.0772                 1.0688
 Frc consts  --      5.9146                 6.0606                 6.0340
 IR Inten    --     21.4181                11.9445                11.7341

                    118                    119                    120
                      A                      A                      A
 Frequencies --   3108.0386              3118.3505              3120.9661
 Red. masses --      1.1066                 1.0883                 1.1008
 Frc consts  --      6.2980                 6.2349                 6.3171
 IR Inten    --      0.1474                 3.4598                 6.8054

                    121                    122                    123
                      A                      A                      A
 Frequencies --   3121.1518              3122.8387              3129.4379
 Red. masses --      1.1014                 1.1018                 1.1024
 Frc consts  --      6.3217                 6.3305                 6.3610
 IR Inten    --     19.9788                 5.8708                12.8524

                    124                    125                    126
                      A                      A                      A
 Frequencies --   3132.2045              3132.4394              3145.0214
 Red. masses --      1.1063                 1.1014                 1.1051
 Frc consts  --      6.3947                 6.3674                 6.4401
 IR Inten    --     18.5494                41.3259                11.5120

                    127                    128                    129
                      A                      A                      A
 Frequencies --   3157.8116              3187.4164              3203.0502
 Red. masses --      1.1031                 1.0877                 1.0926
 Frc consts  --      6.4808                 6.5108                 6.6044
 IR Inten    --      7.6190                 0.7069                 4.1252

                    130                    131                    132
                      A                      A                      A
 Frequencies --   3211.9582              3246.0663              3247.6060
 Red. masses --      1.0952                 1.0930                 1.0930
 Frc consts  --      6.6569                 6.7854                 6.7922
 IR Inten    --      3.0483                 0.6790                 1.7518

 - Thermochemistry -
 -------------------
 Temperature   298.150 Kelvin.  Pressure   1.00000 Atm.
 Atom     1 has atomic number  6 and mass  12.00000

 Molecular mass:   434.99839 amu.
 Principal axes and moments of inertia in atomic units:
                           1         2         3
     Eigenvalues --  6963.73704********************
           X            0.99928  -0.03007  -0.02308
           Y            0.03046   0.99939   0.01680
           Z            0.02256  -0.01749   0.99959
 This molecule is an asymmetric top.
 Rotational symmetry number  1.
 Warning -- assumption of classical behavior for rotation
           may cause significant error
 Rotational temperatures (Kelvin)      0.01244     0.00639     0.00542
 Rotational constants (GHZ):           0.25916     0.13315     0.11298
 Zero-point vibrational energy     949264.0 (Joules/Mol)
                                  226.87954 (Kcal/Mol)
 Warning -- explicit consideration of  42 degrees of freedom as
           vibrations may cause significant error
 Vibrational temperatures:     18.39    30.45    47.16    65.82    78.55
          (Kelvin)             90.71   104.76   116.06   120.90   142.68
                              153.63   166.13   180.12   186.77   207.80
                              217.71   236.50   258.60   261.82   304.10
                              317.50   352.46   373.62   408.10   422.13
                              435.71   452.42   469.72   474.99   501.39
                              524.97   536.39   564.39   571.10   577.70
                              593.84   630.50   660.07   736.54   757.81
                              828.33   889.70   894.85   925.93   949.07
                              970.23  1084.82  1106.53  1159.61  1162.62
                             1170.18  1198.52  1208.51  1243.21  1285.05
                             1307.40  1332.77  1359.21  1368.22  1409.09
                             1416.76  1439.09  1443.41  1450.05  1451.95
                             1474.87  1495.24  1508.80  1516.57  1528.09
                             1554.56  1611.75  1628.80  1640.07  1673.81
                             1682.44  1705.61  1717.22  1733.87  1753.52
                             1773.18  1794.64  1817.03  1830.86  1846.67
                             1868.43  1894.63  1909.42  1936.40  1964.08
                             1987.32  1993.26  2013.65  2026.52  2037.18
                             2099.37  2113.86  2121.72  2122.95  2130.76
                             2137.54  2137.78  2143.28  2167.57  2168.87
                             2172.55  2228.56  2300.96  2370.12  2549.07
                             4372.45  4377.12  4396.81  4410.81  4419.27
                             4446.18  4453.78  4471.77  4486.61  4490.37
                             4490.64  4493.07  4502.56  4506.54  4506.88
                             4524.98  4543.39  4585.98  4608.47  4621.29
                             4670.37  4672.58

 Zero-point correction=                           0.361556 (Hartree/Particle)
 Thermal correction to Energy=                    0.388745
 Thermal correction to Enthalpy=                  0.389689
 Thermal correction to Gibbs Free Energy=         0.299633
 Sum of electronic and zero-point Energies=          -3531.180375
 Sum of electronic and thermal Energies=             -3531.153186
 Sum of electronic and thermal Enthalpies=           -3531.152241
 Sum of electronic and thermal Free Energies=        -3531.242297

                     E (Thermal)             CV                S
                      KCal/Mol        Cal/Mol-Kelvin    Cal/Mol-Kelvin
 Total                  243.941             98.181            189.538
 Electronic               0.000              0.000              3.561
 Translational            0.889              2.981             44.100
 Rotational               0.889              2.981             35.665
 Vibrational            242.163             92.219            106.212
 Vibration     1          0.593              1.987              7.524
 Vibration     2          0.593              1.985              6.522
 Vibration     3          0.594              1.983              5.654
 Vibration     4          0.595              1.979              4.993
 Vibration     5          0.596              1.976              4.644
 Vibration     6          0.597              1.972              4.360
 Vibration     7          0.599              1.967              4.076
 Vibration     8          0.600              1.962              3.875
 Vibration     9          0.601              1.960              3.794
 Vibration    10          0.604              1.950              3.471
 Vibration    11          0.606              1.944              3.327
 Vibration    12          0.608              1.937              3.175
 Vibration    13          0.610              1.928              3.019
 Vibration    14          0.612              1.923              2.949
 Vibration    15          0.616              1.909              2.744
 Vibration    16          0.619              1.901              2.656
 Vibration    17          0.623              1.886              2.499
 Vibration    18          0.629              1.867              2.331
 Vibration    19          0.630              1.864              2.308
 Vibration    20          0.643              1.824              2.032
 Vibration    21          0.647              1.810              1.954
 Vibration    22          0.660              1.771              1.767
 Vibration    23          0.668              1.746              1.664
 Vibration    24          0.682              1.704              1.512
 Vibration    25          0.688              1.686              1.454
 Vibration    26          0.694              1.668              1.401
 Vibration    27          0.702              1.646              1.339
 Vibration    28          0.710              1.623              1.278
 Vibration    29          0.713              1.615              1.259
 Vibration    30          0.726              1.578              1.173
 Vibration    31          0.738              1.545              1.101
 Vibration    32          0.744              1.528              1.068
 Vibration    33          0.760              1.487              0.992
 Vibration    34          0.763              1.477              0.974
 Vibration    35          0.767              1.467              0.957
 Vibration    36          0.777              1.443              0.917
 Vibration    37          0.798              1.387              0.832
 Vibration    38          0.817              1.341              0.770
 Vibration    39          0.867              1.224              0.629
 Vibration    40          0.882              1.191              0.595
 Vibration    41          0.932              1.084              0.493
 Vibration    42          0.978              0.993              0.419

 Optimization completed.
    -- Stationary point found.
 Normal termination of Gaussian 16 at Mon Jun 14 16:22:03 2021.
