 Gaussian 16, Revision A.03,
 Gaussian 16:  ES64L-G16RevA.03 25-Dec-2016

 ----------------------------------------------------------------------
 #p opt=(calcfc,maxstep=3) freq=noraman ub3lyp empiricaldispersion=gd3b
 j jul-cc-pvdz pop=cm5
 ----------------------------------------------------------------------

 -----
 title
 -----
 Symbolic Z-matrix:
 Charge =  0 Multiplicity = 6

 SCF Done:  E(UB3LYP) =  -3531.54014661     A.U. after   26 cycles
 Optimization completed.
    -- Stationary point found.
 Normal termination of Gaussian 16 at Mon Jun 14 12:41:59 2021.

 ----------------------------------------------------------------------
 #P Geom=AllCheck Guess=TCheck SCRF=Check GenChk UB3LYP/Jul-CC-pVDZ Fre
 q
 ----------------------------------------------------------------------

 Structure from the checkpoint file:  "/scratch/kwaneu.2872321.bmbhpcps002/Gau-27496.chk"
 -----
 title
 -----
 Charge =  0 Multiplicity = 6

                         Standard orientation:
 ---------------------------------------------------------------------
 Center     Atomic      Atomic             Coordinates (Angstroms)
 Number     Number       Type             X           Y           Z
 ---------------------------------------------------------------------
      1          6           0       -1.910549   -1.644467   -1.452040
      2          6           0       -1.020227   -0.552326   -1.679335
      3          6           0        0.232724   -0.825144   -2.306047
      4          6           0        0.610104   -2.128630   -2.594370
      5          6           0       -0.267399   -3.181638   -2.323663
      6          6           0       -1.537495   -2.934083   -1.773776
      7          6           0       -1.335737    0.766444   -1.272591
      8          6           0       -2.608579    1.180925   -0.557773
      9          6           0       -2.647523    2.722499   -0.651519
     10          6           0       -1.507147    3.119999   -1.606390
     11          6           0       -0.520685    1.936073   -1.592582
     12          6           0        0.797830    2.147153   -0.568159
     13          6           0        1.616314    3.281111   -1.204456
     14          8           0        1.536229    0.997251   -0.618864
     15         26           0        2.105760   -0.287328    0.617408
     16         17           0        3.227840    0.713831    2.238628
     17          6           0        0.345097    2.512052    0.844120
     18         17           0        3.334545   -1.740141   -0.530766
     19         17           0        0.247922   -1.274170    1.421070
     20          1           0        0.922238   -0.017339   -2.520582
     21          1           0        1.594581   -2.324379   -3.013172
     22          1           0        0.031822   -4.205518   -2.552180
     23          1           0       -2.220967   -3.761652   -1.586026
     24          1           0       -2.879579   -1.466807   -1.000999
     25          1           0       -3.448963    0.712477   -1.090976
     26          6           0       -2.739652    0.704383    0.913874
     27          1           0       -3.625537    3.074711   -0.998490
     28          1           0       -2.487438    3.133651    0.349131
     29          1           0       -1.880262    3.251916   -2.631593
     30          1           0       -1.036722    4.064360   -1.316047
     31          1           0       -0.007687    1.804093   -2.548573
     32          1           0       -0.285312    3.408325    0.853382
     33          1           0       -0.192960    1.690550    1.323233
     34          1           0        1.241712    2.717693    1.441921
     35          1           0        1.065494    4.228430   -1.247359
     36          1           0        2.509571    3.426979   -0.583374
     37          1           0        1.942550    2.999815   -2.213214
     38          8           0       -3.090543   -0.577590    0.995854
     39          8           0       -2.587333    1.437875    1.861348
     40          6           0       -3.114710   -1.160918    2.336738
     41          6           0       -3.195166   -2.661137    2.165469
     42          1           0       -2.198273   -0.850666    2.849463
     43          1           0       -3.981695   -0.743191    2.865639
     44          1           0       -3.233225   -3.135211    3.156028
     45          1           0       -4.097715   -2.951324    1.609098
     46          1           0       -2.306649   -3.032266    1.638547
 ---------------------------------------------------------------------

 SCF Done:  E(UB3LYP) =  -3531.54014661     A.U. after    1 cycles

 The electronic state is 6-A.
 Alpha  occ. eigenvalues -- -256.17017-101.49229-101.48716-101.48677 -30.16452
 Alpha  occ. eigenvalues --  -26.01756 -26.01668 -26.01622 -19.21940 -19.16768
 Alpha  occ. eigenvalues --  -19.14255 -10.34949 -10.29490 -10.28094 -10.25875
 Alpha  occ. eigenvalues --  -10.25395 -10.24934 -10.24736 -10.24158 -10.24121
 Alpha  occ. eigenvalues --  -10.23415 -10.23268 -10.22723 -10.22095 -10.21601
 Alpha  occ. eigenvalues --  -10.19822 -10.19112 -10.17953  -9.40914  -9.40435
 Alpha  occ. eigenvalues --   -9.40390  -7.16788  -7.16466  -7.16439  -7.16306
 Alpha  occ. eigenvalues --   -7.16259  -7.15982  -7.15969  -7.15938  -7.15936
 Alpha  occ. eigenvalues --   -3.64157  -2.41684  -2.41485  -2.41372  -1.14054
 Alpha  occ. eigenvalues --   -1.05412  -1.02140  -0.92324  -0.89201  -0.81823
 Alpha  occ. eigenvalues --   -0.81239  -0.79495  -0.78864  -0.76939  -0.76181
 Alpha  occ. eigenvalues --   -0.75936  -0.75808  -0.74514  -0.70681  -0.68067
 Alpha  occ. eigenvalues --   -0.65992  -0.65242  -0.62021  -0.61029  -0.58227
 Alpha  occ. eigenvalues --   -0.57461  -0.56603  -0.54844  -0.52666  -0.51451
 Alpha  occ. eigenvalues --   -0.51378  -0.50291  -0.49619  -0.48482  -0.47921
 Alpha  occ. eigenvalues --   -0.46983  -0.46402  -0.45749  -0.45073  -0.44534
 Alpha  occ. eigenvalues --   -0.44327  -0.43849  -0.43305  -0.43080  -0.42753
 Alpha  occ. eigenvalues --   -0.42570  -0.41943  -0.41382  -0.41051  -0.40246
 Alpha  occ. eigenvalues --   -0.39883  -0.39447  -0.38801  -0.38532  -0.38291
 Alpha  occ. eigenvalues --   -0.38054  -0.37069  -0.37026  -0.36874  -0.35681
 Alpha  occ. eigenvalues --   -0.34282  -0.33272  -0.32978  -0.31515  -0.31079
 Alpha  occ. eigenvalues --   -0.30564  -0.29652  -0.29124  -0.28008  -0.27542
 Alpha  occ. eigenvalues --   -0.27334  -0.27195  -0.26539  -0.26147  -0.25947
 Alpha virt. eigenvalues --   -0.16027  -0.05024  -0.03715  -0.02839  -0.02431
 Alpha virt. eigenvalues --   -0.01417  -0.00793  -0.00214   0.00582   0.00821
 Alpha virt. eigenvalues --    0.01264   0.01852   0.02121   0.02670   0.02975

  Beta  occ. eigenvalues -- -256.16831-101.49067-101.48539-101.48483 -30.07555
  Beta  occ. eigenvalues --  -25.94308 -25.94260 -25.94225 -19.21938 -19.16767
  Beta  occ. eigenvalues --  -19.13604 -10.34948 -10.29473 -10.28081 -10.25873
  Beta  occ. eigenvalues --  -10.25396 -10.24937 -10.24732 -10.24156 -10.24116
  Beta  occ. eigenvalues --  -10.23399 -10.23268 -10.22725 -10.22095 -10.21600
  Beta  occ. eigenvalues --  -10.19821 -10.19092 -10.17942  -9.40754  -9.40262
  Beta  occ. eigenvalues --   -9.40200  -7.16503  -7.16254  -7.16235  -7.16015
  Beta  occ. eigenvalues --   -7.15948  -7.15742  -7.15735  -7.15677  -7.15667
  Beta  occ. eigenvalues --   -3.43415  -2.19731  -2.19662  -2.19580  -1.14051
  Beta  occ. eigenvalues --   -1.05410  -1.00868  -0.92277  -0.89177  -0.81809
  Beta  occ. eigenvalues --   -0.81172  -0.79488  -0.78716  -0.75865  -0.75731
  Beta  occ. eigenvalues --   -0.74963  -0.74617  -0.74491  -0.70621  -0.68055
  Beta  occ. eigenvalues --   -0.65974  -0.65236  -0.61931  -0.60936  -0.58212
  Beta  occ. eigenvalues --   -0.57372  -0.56007  -0.54823  -0.52644  -0.51425
  Beta  occ. eigenvalues --   -0.51004  -0.50126  -0.49253  -0.48186  -0.47370
  Beta  occ. eigenvalues --   -0.46544  -0.46157  -0.45366  -0.43880  -0.43010
  Beta  occ. eigenvalues --   -0.42944  -0.41984  -0.41425  -0.41179  -0.40672
  Beta  occ. eigenvalues --   -0.39898  -0.39495  -0.38787  -0.38540  -0.38278
  Beta  occ. eigenvalues --   -0.38044  -0.37106  -0.36989  -0.36879  -0.35649
  Beta  occ. eigenvalues --   -0.34647  -0.33262  -0.32731  -0.32600  -0.32255
  Beta  occ. eigenvalues --   -0.30805  -0.30506  -0.30053  -0.29789  -0.29483
  Beta  occ. eigenvalues --   -0.28983  -0.28518  -0.26900  -0.26159  -0.25978
  Beta virt. eigenvalues --   -0.16052  -0.10950  -0.10656  -0.09861  -0.09626
  Beta virt. eigenvalues --   -0.08698  -0.04963  -0.03697  -0.02815  -0.02407
  Beta virt. eigenvalues --   -0.01407  -0.00778  -0.00195   0.00592   0.00841

 Mulliken charges and spin densities:
               1          2
     1  C   -0.497536   0.007007
     2  C    2.741076  -0.005990
     3  C   -0.509334  -0.012291
     4  C    0.043927  -0.003916
     5  C    0.195446   0.000883
     6  C    0.029489   0.003623
     7  C   -0.517295   0.033511
     8  C   -0.407485  -0.005287
     9  C    0.490489   0.000455
    10  C    0.787259   0.001451
    11  C    0.134957   0.009584
    12  C   -0.476347  -0.021612
    13  C    0.440998   0.013421
    14  O   -0.555574   0.212718
    15  Fe   0.641612   4.039250
    16  Cl  -0.444164   0.265876
    17  C    0.584205   0.003512
    18  Cl  -0.494485   0.241586
    19  Cl  -0.490399   0.211954
    20  H   -0.278092  -0.001093
    21  H   -0.186014   0.000053
    22  H   -0.149197   0.000043
    23  H   -0.164392  -0.000016
    24  H   -0.272321  -0.000017
    25  H   -0.156486   0.000491
    26  C    0.847935   0.004960
    27  H   -0.140813  -0.000004
    28  H   -0.042687  -0.000042
    29  H   -0.129743   0.000505
    30  H   -0.110811   0.000415
    31  H   -0.233980  -0.000530
    32  H   -0.023004  -0.000760
    33  H    0.081509  -0.000166
    34  H   -0.015026  -0.001006
    35  H   -0.020301   0.002645
    36  H    0.007120  -0.000565
    37  H   -0.015934  -0.000180
    38  O   -0.640886  -0.001556
    39  O   -0.519760   0.000071
    40  C    0.428039   0.000879
    41  C    0.100165   0.000389
    42  H   -0.027075  -0.000148
    43  H   -0.065704   0.000077
    44  H   -0.015345   0.000102
    45  H    0.010298   0.000016
    46  H    0.035664  -0.000299
 Sum of Mulliken charges =  -0.00000   5.00000

 Dipole moment (field-independent basis, Debye):
    X=            -10.0214    Y=              0.7746    Z=             -6.8443  Tot=             12.1603
 Quadrupole moment (field-independent basis, Debye-Ang):
   XX=           -186.4434   YY=           -158.7282   ZZ=           -174.5258
   XY=              9.0736   XZ=             -6.1196   YZ=             -3.6254

  Exact polarizability: 313.867  10.119 342.983  -1.782  24.492 262.947
 Approx polarizability: 494.858  23.492 577.776 -15.276  62.628 423.713

                      1                      2                      3
                      A                      A                      A
 Frequencies --     23.9729                36.1978                39.8264
 Red. masses --      7.1529                 9.7397                 5.0024
 Frc consts  --      0.0024                 0.0075                 0.0047
 IR Inten    --      0.2136                 0.4367                 1.0051

                      4                      5                      6
                      A                      A                      A
 Frequencies --     49.9386                56.0274                63.3995
 Red. masses --      5.3597                 4.4662                 7.6374
 Frc consts  --      0.0079                 0.0083                 0.0181
 IR Inten    --      1.5727                 1.3537                 0.5687

                      7                      8                      9
                      A                      A                      A
 Frequencies --     76.0193                91.7017                96.8867
 Red. masses --     10.3882                 4.2501                 6.7489
 Frc consts  --      0.0354                 0.0211                 0.0373
 IR Inten    --      0.7026                 0.1378                 0.4957

                     10                     11                     12
                      A                      A                      A
 Frequencies --     99.0075               112.0292               112.9993
 Red. masses --      8.0617                 7.4849                 8.4919
 Frc consts  --      0.0466                 0.0553                 0.0639
 IR Inten    --      2.8898                 1.7024                 0.4508

                     13                     14                     15
                      A                      A                      A
 Frequencies --    124.7276               128.0773               139.1180
 Red. masses --      5.7708                 7.0220                 4.0658
 Frc consts  --      0.0529                 0.0679                 0.0464
 IR Inten    --      1.7462                 2.9207                 3.5602

                     16                     17                     18
                      A                      A                      A
 Frequencies --    163.7286               166.7498               168.1769
 Red. masses --      3.2677                 2.0307                 4.0077
 Frc consts  --      0.0516                 0.0333                 0.0668
 IR Inten    --      0.7367                 2.0911                 1.5870

                     19                     20                     21
                      A                      A                      A
 Frequencies --    210.8237               221.9643               226.0429
 Red. masses --      2.6095                 1.4882                 3.7149
 Frc consts  --      0.0683                 0.0432                 0.1118
 IR Inten    --      0.9817                 8.0050                 5.6579

                     22                     23                     24
                      A                      A                      A
 Frequencies --    239.2078               254.1171               268.3252
 Red. masses --      3.2260                 2.7470                 1.7171
 Frc consts  --      0.1088                 0.1045                 0.0728
 IR Inten    --      7.4326                 3.8090                 6.9439

                     25                     26                     27
                      A                      A                      A
 Frequencies --    272.7510               304.5578               310.9218
 Red. masses --      2.9239                 1.3353                 4.8636
 Frc consts  --      0.1282                 0.0730                 0.2770
 IR Inten    --      3.3828                 2.1304                44.8902

                     28                     29                     30
                      A                      A                      A
 Frequencies --    323.0299               337.6868               345.9240
 Red. masses --      3.6505                 5.2642                 3.6855
 Frc consts  --      0.2244                 0.3537                 0.2598
 IR Inten    --      7.2710                14.5197                 9.9538

                     31                     32                     33
                      A                      A                      A
 Frequencies --    370.1076               373.4836               392.3953
 Red. masses --     13.6742                 3.3940                30.9945
 Frc consts  --      1.1036                 0.2789                 2.8118
 IR Inten    --     97.8713                15.9473                75.5179

                     34                     35                     36
                      A                      A                      A
 Frequencies --    401.6067               413.2561               432.8411
 Red. masses --      4.0018                 2.7914                 3.8353
 Frc consts  --      0.3803                 0.2809                 0.4234
 IR Inten    --     20.0188                 3.1812                 5.6526

                     37                     38                     39
                      A                      A                      A
 Frequencies --    437.9913               467.6598               498.8093
 Red. masses --      3.6560                 3.8548                 3.4049
 Frc consts  --      0.4132                 0.4967                 0.4991
 IR Inten    --      4.8451                40.0934                 5.6343

                     40                     41                     42
                      A                      A                      A
 Frequencies --    540.2990               571.1994               604.0365
 Red. masses --      3.5603                 4.5343                 3.8072
 Frc consts  --      0.6124                 0.8716                 0.8184
 IR Inten    --    220.3208                53.2028                60.1160

                     43                     44                     45
                      A                      A                      A
 Frequencies --    618.3202               644.9610               664.3454
 Red. masses --      6.2320                 3.4383                 1.7141
 Frc consts  --      1.4038                 0.8427                 0.4457
 IR Inten    --      1.6671                 6.0071                79.0524

                     46                     47                     48
                      A                      A                      A
 Frequencies --    673.0926               705.9946               763.9722
 Red. masses --      3.5125                 3.4992                 3.5245
 Frc consts  --      0.9376                 1.0276                 1.2120
 IR Inten    --      2.5254                 3.5973                45.9608

                     49                     50                     51
                      A                      A                      A
 Frequencies --    794.3652               810.4193               812.2557
 Red. masses --      2.7386                 1.1415                 1.4029
 Frc consts  --      1.0182                 0.4417                 0.5453
 IR Inten    --     23.6717                 2.2849                 8.2820

                     52                     53                     54
                      A                      A                      A
 Frequencies --    821.1833               852.5762               865.4882
 Red. masses --      2.5472                 2.7673                 2.9366
 Frc consts  --      1.0120                 1.1852                 1.2961
 IR Inten    --     98.6617                29.3785                25.2003

                     55                     56                     57
                      A                      A                      A
 Frequencies --    892.0454               912.1712               923.0200
 Red. masses --      2.5407                 3.9703                 1.6295
 Frc consts  --      1.1912                 1.9464                 0.8179
 IR Inten    --      2.6631                22.8172                 3.3642

                     58                     59                     60
                      A                      A                      A
 Frequencies --    946.2216               952.8142               979.6546
 Red. masses --      1.5369                 2.5428                 1.4133
 Frc consts  --      0.8108                 1.3601                 0.7992
 IR Inten    --     10.8239                 9.2753                 0.7907

                     61                     62                     63
                      A                      A                      A
 Frequencies --    983.4786               997.4773              1001.9732
 Red. masses --      1.8600                 3.2039                 2.7225
 Frc consts  --      1.0600                 1.8782                 1.6104
 IR Inten    --     53.2516                20.3794                 5.4708

                     64                     65                     66
                      A                      A                      A
 Frequencies --   1010.8370              1014.9281              1033.5018
 Red. masses --      1.4952                 1.6053                 2.0804
 Frc consts  --      0.9001                 0.9743                 1.3093
 IR Inten    --      2.8963                25.5339                55.2352

                     67                     68                     69
                      A                      A                      A
 Frequencies --   1035.4842              1050.3438              1055.3107
 Red. masses --      2.3842                 2.1699                 2.3105
 Frc consts  --      1.5062                 1.4104                 1.5161
 IR Inten    --     47.6171                 4.3491                 1.4574

                     70                     71                     72
                      A                      A                      A
 Frequencies --   1078.4151              1092.3010              1124.2906
 Red. masses --      1.6985                 1.9556                 1.5781
 Frc consts  --      1.1638                 1.3747                 1.1753
 IR Inten    --    193.7175                 9.0118                 8.4277

                     73                     74                     75
                      A                      A                      A
 Frequencies --   1132.6198              1152.0979              1169.7450
 Red. masses --      2.1822                 1.7199                 1.5647
 Frc consts  --      1.6494                 1.3450                 1.2615
 IR Inten    --     16.4360                17.7378                14.4467

                     76                     77                     78
                      A                      A                      A
 Frequencies --   1175.1953              1185.6989              1204.2217
 Red. masses --      1.4669                 1.1009                 1.9584
 Frc consts  --      1.1936                 0.9119                 1.6732
 IR Inten    --     17.1023                 5.3368                76.5478

                     79                     80                     81
                      A                      A                      A
 Frequencies --   1217.4564              1223.3461              1228.1208
 Red. masses --      1.5536                 1.3618                 1.9488
 Frc consts  --      1.3567                 1.2008                 1.7318
 IR Inten    --     37.7623                20.0191                37.8085

                     82                     83                     84
                      A                      A                      A
 Frequencies --   1243.7460              1250.6704              1266.3260
 Red. masses --      1.7430                 2.6346                 2.0078
 Frc consts  --      1.5886                 2.4280                 1.8970
 IR Inten    --     75.3440               274.8451                27.9846

                     85                     86                     87
                      A                      A                      A
 Frequencies --   1286.8700              1295.2951              1302.3788
 Red. masses --      1.3116                 1.5002                 1.3595
 Frc consts  --      1.2797                 1.4830                 1.3587
 IR Inten    --      8.2030                18.8837                38.5344

                     88                     89                     90
                      A                      A                      A
 Frequencies --   1331.0103              1346.1117              1361.8539
 Red. masses --      1.5641                 1.4339                 1.5778
 Frc consts  --      1.6326                 1.5309                 1.7241
 IR Inten    --     22.3199                 1.9556                14.7514

                     91                     92                     93
                      A                      A                      A
 Frequencies --   1380.6009              1386.6845              1398.4092
 Red. masses --      1.2849                 1.2428                 5.2070
 Frc consts  --      1.4430                 1.4081                 5.9994
 IR Inten    --      5.5386                12.1946                19.5486

                     94                     95                     96
                      A                      A                      A
 Frequencies --   1412.9396              1415.3943              1452.4298
 Red. masses --      1.2475                 1.4253                 2.4578
 Frc consts  --      1.4673                 1.6823                 3.0548
 IR Inten    --      3.6052                16.4536               166.1509

                     97                     98                     99
                      A                      A                      A
 Frequencies --   1468.2127              1471.6113              1476.0329
 Red. masses --      1.0486                 2.3185                 1.0464
 Frc consts  --      1.3317                 2.9583                 1.3431
 IR Inten    --      1.0404                62.0560                 2.3360

                    100                    101                    102
                      A                      A                      A
 Frequencies --   1483.8423              1485.2968              1486.9333
 Red. masses --      1.0667                 1.0712                 1.0666
 Frc consts  --      1.3838                 1.3924                 1.3894
 IR Inten    --      5.0443                 6.3254                 5.6154

                    103                    104                    105
                      A                      A                      A
 Frequencies --   1493.4589              1501.1460              1503.5205
 Red. masses --      1.0704                 1.0808                 1.0643
 Frc consts  --      1.4067                 1.4350                 1.4176
 IR Inten    --      4.3147                 9.9357                 0.5622

                    106                    107                    108
                      A                      A                      A
 Frequencies --   1512.3224              1541.0651              1595.8224
 Red. masses --      1.0809                 3.0499                 4.3084
 Frc consts  --      1.4566                 4.2675                 6.4645
 IR Inten    --     15.9681               111.1582                 5.4162

                    109                    110                    111
                      A                      A                      A
 Frequencies --   1646.4391              1789.1175              3038.8024
 Red. masses --      5.5201                11.2834                 1.0356
 Frc consts  --      8.8163                21.2798                 5.6344
 IR Inten    --    196.2548               192.5936                15.4115

                    112                    113                    114
                      A                      A                      A
 Frequencies --   3043.9773              3050.1092              3053.7610
 Red. masses --      1.0341                 1.0822                 1.0704
 Frc consts  --      5.6455                 5.9320                 5.8810
 IR Inten    --     14.4086                 6.5334                34.7051

                    115                    116                    117
                      A                      A                      A
 Frequencies --   3061.5740              3070.5701              3087.3188
 Red. masses --      1.0374                 1.0627                 1.0651
 Frc consts  --      5.7292                 5.9031                 5.9815
 IR Inten    --     13.0912                22.7183                31.1606

                    118                    119                    120
                      A                      A                      A
 Frequencies --   3111.7160              3118.4827              3122.3859
 Red. masses --      1.1020                 1.0865                 1.0980
 Frc consts  --      6.2869                 6.2255                 6.3070
 IR Inten    --     11.6226                 1.7071                 5.0136

                    121                    122                    123
                      A                      A                      A
 Frequencies --   3126.7916              3127.0458              3133.1909
 Red. masses --      1.1006                 1.1009                 1.1013
 Frc consts  --      6.3399                 6.3428                 6.3697
 IR Inten    --      8.2889                14.0286                 6.0856

                    124                    125                    126
                      A                      A                      A
 Frequencies --   3137.0309              3146.7116              3147.0084
 Red. masses --      1.1013                 1.1013                 1.1056
 Frc consts  --      6.3852                 6.4252                 6.4511
 IR Inten    --     35.5511                 6.2863                16.3593

                    127                    128                    129
                      A                      A                      A
 Frequencies --   3173.8733              3183.0132              3199.1219
 Red. masses --      1.1009                 1.0880                 1.0944
 Frc consts  --      6.5337                 6.4945                 6.5992
 IR Inten    --      7.1484                 2.0634                 7.8786

                    130                    131                    132
                      A                      A                      A
 Frequencies --   3221.7635              3259.3389              3262.1914
 Red. masses --      1.0938                 1.0921                 1.0921
 Frc consts  --      6.6892                 6.8356                 6.8472
 IR Inten    --      0.5700                 4.6211                 5.1680

 - Thermochemistry -
 -------------------
 Temperature   298.150 Kelvin.  Pressure   1.00000 Atm.
 Atom     1 has atomic number  6 and mass  12.00000

 Molecular mass:   434.99839 amu.
 Principal axes and moments of inertia in atomic units:
                           1         2         3
     Eigenvalues --  8497.11153********************
           X            0.99810   0.04711  -0.03980
           Y           -0.04976   0.99642  -0.06840
           Z            0.03644   0.07025   0.99686
 This molecule is an asymmetric top.
 Rotational symmetry number  1.
 Warning -- assumption of classical behavior for rotation
           may cause significant error
 Rotational temperatures (Kelvin)      0.01019     0.00784     0.00696
 Rotational constants (GHZ):           0.21239     0.16341     0.14512
 Zero-point vibrational energy     950006.5 (Joules/Mol)
                                  227.05701 (Kcal/Mol)
 Warning -- explicit consideration of  43 degrees of freedom as
           vibrations may cause significant error
 Vibrational temperatures:     34.49    52.08    57.30    71.85    80.61
          (Kelvin)             91.22   109.37   131.94   139.40   142.45
                              161.18   162.58   179.46   184.27   200.16
                              235.57   239.92   241.97   303.33   319.36
                              325.23   344.17   365.62   386.06   392.43
                              438.19   447.35   464.77   485.86   497.71
                              532.50   537.36   564.57   577.82   594.58
                              622.76   630.17   672.86   717.68   777.37
                              821.83   869.07   889.62   927.96   955.84
                              968.43  1015.77  1099.19  1142.91  1166.01
                             1168.65  1181.50  1226.67  1245.24  1283.45
                             1312.41  1328.02  1361.40  1370.89  1409.50
                             1415.01  1435.15  1441.62  1454.37  1460.26
                             1486.98  1489.83  1511.21  1518.36  1551.60
                             1571.58  1617.60  1629.59  1657.61  1683.00
                             1690.84  1705.96  1732.61  1751.65  1760.12
                             1766.99  1789.47  1799.44  1821.96  1851.52
                             1863.64  1873.83  1915.03  1936.75  1959.40
                             1986.38  1995.13  2012.00  2032.91  2036.44
                             2089.72  2112.43  2117.32  2123.68  2134.92
                             2137.01  2139.37  2148.75  2159.81  2163.23
                             2175.89  2217.25  2296.03  2368.86  2574.14
                             4372.16  4379.60  4388.43  4393.68  4404.92
                             4417.87  4441.96  4477.07  4486.80  4492.42
                             4498.76  4499.12  4507.96  4513.49  4527.42
                             4527.84  4566.50  4579.65  4602.82  4635.40
                             4689.46  4693.57

 Zero-point correction=                           0.361838 (Hartree/Particle)
 Thermal correction to Energy=                    0.388863
 Thermal correction to Enthalpy=                  0.389807
 Thermal correction to Gibbs Free Energy=         0.301652
 Sum of electronic and zero-point Energies=          -3531.178308
 Sum of electronic and thermal Energies=             -3531.151284
 Sum of electronic and thermal Enthalpies=           -3531.150339
 Sum of electronic and thermal Free Energies=        -3531.238494

                     E (Thermal)             CV                S
                      KCal/Mol        Cal/Mol-Kelvin    Cal/Mol-Kelvin
 Total                  244.015             98.158            185.538
 Electronic               0.000              0.000              3.561
 Translational            0.889              2.981             44.100
 Rotational               0.889              2.981             35.411
 Vibrational            242.238             92.196            102.466
 Vibration     1          0.593              1.985              6.274
 Vibration     2          0.594              1.982              5.457
 Vibration     3          0.594              1.981              5.268
 Vibration     4          0.595              1.978              4.820
 Vibration     5          0.596              1.975              4.592
 Vibration     6          0.597              1.972              4.348
 Vibration     7          0.599              1.965              3.991
 Vibration     8          0.602              1.955              3.623
 Vibration     9          0.603              1.951              3.516
 Vibration    10          0.604              1.950              3.474
 Vibration    11          0.607              1.940              3.233
 Vibration    12          0.607              1.939              3.217
 Vibration    13          0.610              1.928              3.026
 Vibration    14          0.611              1.925              2.975
 Vibration    15          0.615              1.914              2.816
 Vibration    16          0.623              1.887              2.506
 Vibration    17          0.624              1.883              2.472
 Vibration    18          0.625              1.882              2.456
 Vibration    19          0.643              1.824              2.037
 Vibration    20          0.648              1.808              1.943
 Vibration    21          0.650              1.801              1.910
 Vibration    22          0.657              1.781              1.809
 Vibration    23          0.665              1.756              1.702
 Vibration    24          0.673              1.731              1.607
 Vibration    25          0.676              1.724              1.579
 Vibration    26          0.695              1.665              1.392
 Vibration    27          0.700              1.653              1.357
 Vibration    28          0.708              1.629              1.295
 Vibration    29          0.718              1.600              1.223
 Vibration    30          0.724              1.584              1.185
 Vibration    31          0.742              1.534              1.079
 Vibration    32          0.745              1.527              1.065
 Vibration    33          0.760              1.486              0.991
 Vibration    34          0.767              1.467              0.957
 Vibration    35          0.777              1.441              0.915
 Vibration    36          0.794              1.399              0.849
 Vibration    37          0.798              1.387              0.833
 Vibration    38          0.825              1.322              0.744
 Vibration    39          0.854              1.253              0.661
 Vibration    40          0.895              1.161              0.565
 Vibration    41          0.927              1.094              0.502
 Vibration    42          0.963              1.023              0.443
 Vibration    43          0.978              0.993              0.419

 Optimization completed.
    -- Stationary point found.
 Normal termination of Gaussian 16 at Mon Jun 14 20:13:25 2021.
