 Gaussian 16, Revision A.03,
 Gaussian 16:  ES64L-G16RevA.03 25-Dec-2016

 ----------------------------------------------------------------------
 #p opt=(ts,noeigentest,calcfc) freq=noraman b3lyp jul-cc-pvdz pop=none
  empiricaldispersion=gd3bj
 ----------------------------------------------------------------------

 -----
 title
 -----
 Symbolic Z-matrix:
 Charge =  0 Multiplicity = 6

 SCF Done:  E(UB3LYP) =  -3531.53249892     A.U. after   25 cycles
 Optimization completed.
    -- Stationary point found.
 Normal termination of Gaussian 16 at Wed Jun  2 20:28:42 2021.

 ----------------------------------------------------------------------
 #P Geom=AllCheck Guess=TCheck SCRF=Check GenChk UB3LYP/Jul-CC-pVDZ Fre
 q
 ----------------------------------------------------------------------

 Structure from the checkpoint file:  "/scratch/kwaneu.2863088.bmbhpcps002/Gau-16617.chk"
 -----
 title
 -----
 Charge =  0 Multiplicity = 6

                         Standard orientation:
 ---------------------------------------------------------------------
 Center     Atomic      Atomic             Coordinates (Angstroms)
 Number     Number       Type             X           Y           Z
 ---------------------------------------------------------------------
      1          6           0        2.554696   -0.217544    1.511095
      2          6           0        1.355168   -0.535003    0.853916
      3          6           0        1.037164   -1.882489    0.642143
      4          6           0        1.903409   -2.891552    1.072667
      5          6           0        3.094582   -2.568819    1.725025
      6          6           0        3.417230   -1.224680    1.942662
      7          6           0        0.423240    0.527018    0.291639
      8          6           0        0.937353    1.245515   -1.003465
      9          6           0        0.161950    2.566414   -1.037592
     10          6           0        0.160933    3.076362    0.416458
     11          6           0        0.242561    1.839040    1.327250
     12          6           0       -0.915648    1.426269    2.095028
     13          6           0       -0.791559    0.378573    3.113253
     14          8           0       -0.826492    0.027637    0.061184
     15         26           0       -2.372685   -0.638376   -0.668034
     16         17           0       -3.433978   -1.406812    1.160191
     17          6           0       -2.253501    1.969774    1.832940
     18         17           0       -1.866165   -2.208528   -2.132420
     19         17           0       -3.438085    1.125693   -1.535095
     20          1           0        0.119136   -2.142201    0.121455
     21          1           0        1.639707   -3.934252    0.893593
     22          1           0        3.767839   -3.356573    2.065060
     23          1           0        4.344522   -0.958667    2.451430
     24          1           0        2.840879    0.820487    1.673089
     25          1           0        0.679622    0.570197   -1.826803
     26          6           0        2.438490    1.432893   -0.981015
     27          1           0        0.613943    3.292008   -1.723344
     28          1           0       -0.858737    2.360345   -1.379449
     29          1           0        1.051609    3.685401    0.600310
     30          1           0       -0.715551    3.700298    0.625259
     31          1           0        1.132094    1.835373    1.962344
     32          1           0       -2.286154    2.965169    2.316895
     33          1           0       -2.423242    2.140596    0.761222
     34          1           0       -3.046990    1.343279    2.251362
     35          1           0       -1.389651    0.631486    4.001429
     36          1           0       -1.308866   -0.499173    2.667800
     37          1           0        0.236413    0.118500    3.373101
     38          8           0        3.055684    0.412214   -1.592810
     39          8           0        3.017883    2.357693   -0.441386
     40          6           0        4.501987    0.352439   -1.485174
     41          6           0        4.913177   -1.073376   -1.785511
     42          1           0        4.926992    1.073637   -2.197134
     43          1           0        4.785145    0.663812   -0.472494
     44          1           0        6.007441   -1.160124   -1.726096
     45          1           0        4.465157   -1.761754   -1.056176
     46          1           0        4.594388   -1.371416   -2.793277
 ---------------------------------------------------------------------

 SCF Done:  E(UB3LYP) =  -3531.53249892     A.U. after    2 cycles

 Isotropic polarizability for W=    0.000000      296.45 Bohr**3.
 End of Minotr F.D. properties file   721 does not exist.

 ******    1 imaginary frequencies (negative Signs) ******

                      1                      2                      3
                      A                      A                      A
 Frequencies --   -203.7029                17.3823                26.0780
 Red. masses --      5.8135                 6.7296                10.8782
 Frc consts  --      0.1421                 0.0012                 0.0044
 IR Inten    --     41.9648                 0.5920                 0.0577

                      4                      5                      6
                      A                      A                      A
 Frequencies --     31.8123                36.8581                49.2163
 Red. masses --      7.0981                 3.5261                 3.6474
 Frc consts  --      0.0042                 0.0028                 0.0052
 IR Inten    --      0.4207                 0.3607                 1.4356

                      7                      8                      9
                      A                      A                      A
 Frequencies --     51.4441                72.6242                78.7241
 Red. masses --      5.1561                 4.9928                 3.0674
 Frc consts  --      0.0080                 0.0155                 0.0112
 IR Inten    --      0.9247                 0.2890                 2.5963

                     10                     11                     12
                      A                      A                      A
 Frequencies --     90.0068                91.7055                98.3629
 Red. masses --      4.3317                 5.2211                 3.8068
 Frc consts  --      0.0207                 0.0259                 0.0217
 IR Inten    --      1.6839                 3.2271                 0.7763

                     13                     14                     15
                      A                      A                      A
 Frequencies --     99.0566               113.8962               119.2622
 Red. masses --     10.4843                 5.6217                 3.2843
 Frc consts  --      0.0606                 0.0430                 0.0275
 IR Inten    --      1.8694                 4.7119                 3.8150

                     16                     17                     18
                      A                      A                      A
 Frequencies --    127.5115               132.2383               153.2919
 Red. masses --      7.7901                 4.3652                 3.3136
 Frc consts  --      0.0746                 0.0450                 0.0459
 IR Inten    --      0.0571                 1.2384                 0.6518

                     19                     20                     21
                      A                      A                      A
 Frequencies --    171.8469               186.9346               194.9569
 Red. masses --      1.9315                 2.2218                 2.1043
 Frc consts  --      0.0336                 0.0457                 0.0471
 IR Inten    --      0.8206                13.0709                 6.0285

                     22                     23                     24
                      A                      A                      A
 Frequencies --    217.5992               221.3593               263.4631
 Red. masses --      3.6303                 1.7055                 2.5109
 Frc consts  --      0.1013                 0.0492                 0.1027
 IR Inten    --     11.5249                 1.8048                 3.0175

                     25                     26                     27
                      A                      A                      A
 Frequencies --    267.6020               281.9458               301.7122
 Red. masses --      2.2347                 3.6259                 4.9021
 Frc consts  --      0.0943                 0.1698                 0.2629
 IR Inten    --      2.6359                 4.6046                11.0218

                     28                     29                     30
                      A                      A                      A
 Frequencies --    304.1526               313.9890               334.3772
 Red. masses --      5.0142                 2.4962                19.0276
 Frc consts  --      0.2733                 0.1450                 1.2534
 IR Inten    --      5.4317                 6.1186                57.1376

                     31                     32                     33
                      A                      A                      A
 Frequencies --    347.8700               354.8099               368.1207
 Red. masses --      6.5271                 4.0787                29.9651
 Frc consts  --      0.4654                 0.3025                 2.3925
 IR Inten    --     10.2485                 4.7821                81.8031

                     34                     35                     36
                      A                      A                      A
 Frequencies --    395.0438               406.2005               414.9540
 Red. masses --     34.0551                 2.8825                 2.9777
 Frc consts  --      3.1313                 0.2802                 0.3021
 IR Inten    --     87.9405                 6.7251                 0.4629

                     37                     38                     39
                      A                      A                      A
 Frequencies --    420.6515               481.9356               493.7291
 Red. masses --      3.3602                 2.4487                 2.8523
 Frc consts  --      0.3503                 0.3351                 0.4097
 IR Inten    --      3.4411                 0.2228                 8.5606

                     40                     41                     42
                      A                      A                      A
 Frequencies --    524.9175               595.8676               618.8805
 Red. masses --      3.2081                 5.7594                 4.9034
 Frc consts  --      0.5208                 1.2048                 1.1065
 IR Inten    --      2.1667                30.7478                96.7717

                     43                     44                     45
                      A                      A                      A
 Frequencies --    634.2075               651.5242               677.3462
 Red. masses --      5.6820                 2.5644                 5.0417
 Frc consts  --      1.3465                 0.6414                 1.3628
 IR Inten    --     28.5335                12.2949                 7.1899

                     46                     47                     48
                      A                      A                      A
 Frequencies --    707.0447               742.2683               753.6023
 Red. masses --      1.8402                 2.3597                 2.5035
 Frc consts  --      0.5420                 0.7660                 0.8377
 IR Inten    --     34.8142                39.4836                 1.6964

                     49                     50                     51
                      A                      A                      A
 Frequencies --    776.2452               807.0806               809.1943
 Red. masses --      2.7370                 1.2252                 1.4445
 Frc consts  --      0.9717                 0.4702                 0.5573
 IR Inten    --      7.4344                13.2247                11.0017

                     52                     53                     54
                      A                      A                      A
 Frequencies --    815.7842               852.3008               859.9988
 Red. masses --      3.5483                 1.2665                 2.4709
 Frc consts  --      1.3913                 0.5421                 1.0767
 IR Inten    --     41.8238                 1.0497                21.8004

                     55                     56                     57
                      A                      A                      A
 Frequencies --    875.1189               893.1572               919.8957
 Red. masses --      2.9393                 3.2568                 2.8011
 Frc consts  --      1.3262                 1.5307                 1.3966
 IR Inten    --     10.7187                24.3814                 4.9599

                     58                     59                     60
                      A                      A                      A
 Frequencies --    933.5194               961.4932               968.4505
 Red. masses --      1.5108                 2.5314                 1.9768
 Frc consts  --      0.7757                 1.3788                 1.0923
 IR Inten    --      4.9085                16.1991                23.3135

                     61                     62                     63
                      A                      A                      A
 Frequencies --    986.4468               990.4129               993.4177
 Red. masses --      1.3741                 2.5243                 1.7544
 Frc consts  --      0.7878                 1.4589                 1.0201
 IR Inten    --      0.3794                11.7788                23.1122

                     64                     65                     66
                      A                      A                      A
 Frequencies --   1003.0307              1012.4428              1016.2116
 Red. masses --      1.4730                 2.8003                 1.8011
 Frc consts  --      0.8731                 1.6912                 1.0958
 IR Inten    --      1.0698                14.1215                 7.4863

                     67                     68                     69
                      A                      A                      A
 Frequencies --   1037.7226              1054.0677              1059.0285
 Red. masses --      2.7925                 2.2396                 2.4021
 Frc consts  --      1.7717                 1.4661                 1.5873
 IR Inten    --      7.8122                 3.8316                63.8912

                     70                     71                     72
                      A                      A                      A
 Frequencies --   1076.2539              1088.7167              1109.4534
 Red. masses --      1.8166                 1.8131                 1.7844
 Frc consts  --      1.2398                 1.2662                 1.2941
 IR Inten    --      3.6794                41.0468                 7.2445

                     73                     74                     75
                      A                      A                      A
 Frequencies --   1115.6459              1132.3516              1166.6320
 Red. masses --      1.9348                 2.1476                 2.1709
 Frc consts  --      1.4189                 1.6224                 1.7409
 IR Inten    --     56.4657                 6.8539               205.3089

                     76                     77                     78
                      A                      A                      A
 Frequencies --   1172.1476              1175.5907              1180.9149
 Red. masses --      1.8108                 1.1016                 1.2428
 Frc consts  --      1.4659                 0.8970                 1.0211
 IR Inten    --     42.8492                 3.9683                43.7791

                     79                     80                     81
                      A                      A                      A
 Frequencies --   1205.0938              1207.9139              1217.1087
 Red. masses --      1.6493                 1.1574                 2.5908
 Frc consts  --      1.4112                 0.9950                 2.2613
 IR Inten    --     22.4646                 1.7361               283.3742

                     82                     83                     84
                      A                      A                      A
 Frequencies --   1245.2181              1259.6025              1267.6191
 Red. masses --      1.9962                 1.7666                 1.8849
 Frc consts  --      1.8237                 1.6514                 1.7845
 IR Inten    --     57.9963                41.8993               103.2816

                     85                     86                     87
                      A                      A                      A
 Frequencies --   1286.4521              1312.6571              1329.5763
 Red. masses --      1.1205                 1.2966                 1.3505
 Frc consts  --      1.0925                 1.3163                 1.4066
 IR Inten    --      6.0738                45.2683                15.6695

                     88                     89                     90
                      A                      A                      A
 Frequencies --   1334.5448              1339.5034              1350.1391
 Red. masses --      1.7275                 1.5335                 1.1765
 Frc consts  --      1.8127                 1.6212                 1.2636
 IR Inten    --      6.8747                45.1902                11.9308

                     91                     92                     93
                      A                      A                      A
 Frequencies --   1362.3340              1365.6136              1379.3964
 Red. masses --      3.0639                 1.3096                 1.5186
 Frc consts  --      3.3503                 1.4389                 1.7024
 IR Inten    --      2.5568                31.6687                28.4481

                     94                     95                     96
                      A                      A                      A
 Frequencies --   1394.4545              1406.1036              1418.8898
 Red. masses --      1.5588                 1.5812                 1.5902
 Frc consts  --      1.7858                 1.8419                 1.8862
 IR Inten    --    119.9952                91.7963                13.1947

                     97                     98                     99
                      A                      A                      A
 Frequencies --   1420.4897              1451.4046              1471.0687
 Red. masses --      1.0897                 1.2803                 2.2455
 Frc consts  --      1.2955                 1.5890                 2.8630
 IR Inten    --      9.0907                 4.5421                18.4519

                    100                    101                    102
                      A                      A                      A
 Frequencies --   1474.8300              1479.5073              1487.7070
 Red. masses --      1.0395                 1.1345                 1.0513
 Frc consts  --      1.3321                 1.4632                 1.3710
 IR Inten    --      3.8468                11.7142                 0.3140

                    103                    104                    105
                      A                      A                      A
 Frequencies --   1490.1011              1500.0993              1505.4074
 Red. masses --      1.1580                 1.3437                 1.3000
 Frc consts  --      1.5149                 1.7816                 1.7359
 IR Inten    --     13.8488                17.9976                19.2540

                    106                    107                    108
                      A                      A                      A
 Frequencies --   1507.8534              1520.7696              1625.6111
 Red. masses --      1.0911                 2.1955                 5.7524
 Frc consts  --      1.4616                 2.9916                 8.9563
 IR Inten    --      7.5245                 5.7959                 0.1168

                    109                    110                    111
                      A                      A                      A
 Frequencies --   1645.6006              1756.8161              2935.8812
 Red. masses --      5.7556                11.0717                 1.0591
 Frc consts  --      9.1830                20.1334                 5.3783
 IR Inten    --      0.6698               176.5805                53.0966

                    112                    113                    114
                      A                      A                      A
 Frequencies --   2991.5682              3039.5191              3060.6029
 Red. masses --      1.0507                 1.0349                 1.0605
 Frc consts  --      5.5404                 5.6333                 5.8532
 IR Inten    --     26.7469                15.5858                21.2487

                    115                    116                    117
                      A                      A                      A
 Frequencies --   3067.7190              3075.2936              3076.3429
 Red. masses --      1.0733                 1.0809                 1.0612
 Frc consts  --      5.9511                 6.0227                 5.9171
 IR Inten    --      1.9911                29.7121                11.7228

                    118                    119                    120
                      A                      A                      A
 Frequencies --   3084.8967              3106.0851              3108.5993
 Red. masses --      1.0617                 1.0860                 1.1044
 Frc consts  --      5.9529                 6.1732                 6.2876
 IR Inten    --     27.0990                 0.2552                 1.8289

                    121                    122                    123
                      A                      A                      A
 Frequencies --   3117.7646              3120.7831              3126.2307
 Red. masses --      1.1010                 1.0953                 1.0963
 Frc consts  --      6.3053                 6.2853                 6.3129
 IR Inten    --     20.5018                 1.1871                 8.0031

                    124                    125                    126
                      A                      A                      A
 Frequencies --   3131.9576              3140.1553              3160.0692
 Red. masses --      1.1056                 1.1035                 1.1030
 Frc consts  --      6.3899                 6.4110                 6.4894
 IR Inten    --     28.5251                 3.9375                 4.2994

                    127                    128                    129
                      A                      A                      A
 Frequencies --   3170.1406              3180.0650              3181.5297
 Red. masses --      1.0853                 1.1016                 1.0893
 Frc consts  --      6.4265                 6.5634                 6.4963
 IR Inten    --      1.0293                 4.1357                 7.9815

                    130                    131                    132
                      A                      A                      A
 Frequencies --   3191.8868              3198.2277              3224.9140
 Red. masses --      1.0930                 1.0975                 1.0926
 Frc consts  --      6.5607                 6.6142                 6.6948
 IR Inten    --     11.4607                 7.7282                 6.6994

 - Thermochemistry -
 -------------------
 Temperature   298.150 Kelvin.  Pressure   1.00000 Atm.
 Atom     1 has atomic number  6 and mass  12.00000

 Molecular mass:   434.99839 amu.
 Principal axes and moments of inertia in atomic units:
                           1         2         3
     Eigenvalues --  7245.53409********************
           X            0.99923  -0.03097  -0.02429
           Y            0.03140   0.99935   0.01773
           Z            0.02372  -0.01847   0.99955
 This molecule is an asymmetric top.
 Rotational symmetry number  1.
 Warning -- assumption of classical behavior for rotation
           may cause significant error
 Rotational temperatures (Kelvin)      0.01195     0.00640     0.00608
 Rotational constants (GHZ):           0.24908     0.13339     0.12679
    1 imaginary frequencies ignored.
 Zero-point vibrational energy     941406.2 (Joules/Mol)
                                  225.00149 (Kcal/Mol)
 Warning -- explicit consideration of  41 degrees of freedom as
           vibrations may cause significant error
 Vibrational temperatures:     25.01    37.52    45.77    53.03    70.81
          (Kelvin)             74.02   104.49   113.27   129.50   131.94
                              141.52   142.52   163.87   171.59   183.46
                              190.26   220.55   247.25   268.96   280.50
                              313.08   318.49   379.06   385.02   405.66
                              434.10   437.61   451.76   481.09   500.51
                              510.49   529.64   568.38   584.43   597.03
                              605.22   693.40   710.37   755.24   857.32
                              890.43   912.48   937.40   974.55  1017.28
                             1067.96  1084.27  1116.84  1161.21  1164.25
                             1173.73  1226.27  1237.35  1259.10  1285.05
                             1323.52  1343.13  1383.37  1393.38  1419.28
                             1424.98  1429.31  1443.14  1456.68  1462.10
                             1493.05  1516.57  1523.71  1548.49  1566.42
                             1596.26  1605.17  1629.20  1678.52  1686.46
                             1691.41  1699.07  1733.86  1737.92  1751.15
                             1791.59  1812.29  1823.82  1850.92  1888.62
                             1912.96  1920.11  1927.25  1942.55  1960.09
                             1964.81  1984.64  2006.31  2023.07  2041.47
                             2043.77  2088.25  2116.54  2121.95  2128.68
                             2140.48  2143.92  2158.31  2165.95  2169.46
                             2188.05  2338.89  2367.65  2527.67  4224.08
                             4304.20  4373.19  4403.52  4413.76  4424.66
                             4426.17  4438.48  4468.96  4472.58  4485.77
                             4490.11  4497.95  4506.19  4517.98  4546.63
                             4561.13  4575.40  4577.51  4592.41  4601.54
                             4639.93

 Zero-point correction=                           0.358563 (Hartree/Particle)
 Thermal correction to Energy=                    0.385796
 Thermal correction to Enthalpy=                  0.386740
 Thermal correction to Gibbs Free Energy=         0.296105
 Sum of electronic and zero-point Energies=          -3531.173936
 Sum of electronic and thermal Energies=             -3531.146703
 Sum of electronic and thermal Enthalpies=           -3531.145759
 Sum of electronic and thermal Free Energies=        -3531.236394

                     E (Thermal)             CV                S
                      KCal/Mol        Cal/Mol-Kelvin    Cal/Mol-Kelvin
 Total                  242.091             97.133            190.757
 Electronic               0.000              0.000              3.561
 Translational            0.889              2.981             44.100
 Rotational               0.889              2.981             35.588
 Vibrational            240.313             91.171            107.508
 Vibration     1          0.593              1.986              6.913
 Vibration     2          0.593              1.985              6.107
 Vibration     3          0.594              1.983              5.713
 Vibration     4          0.594              1.982              5.421
 Vibration     5          0.595              1.978              4.849
 Vibration     6          0.596              1.977              4.761
 Vibration     7          0.599              1.967              4.081
 Vibration     8          0.600              1.963              3.922
 Vibration     9          0.602              1.956              3.660
 Vibration    10          0.602              1.955              3.623
 Vibration    11          0.604              1.950              3.487
 Vibration    12          0.604              1.950              3.473
 Vibration    13          0.607              1.938              3.201
 Vibration    14          0.609              1.933              3.112
 Vibration    15          0.611              1.926              2.983
 Vibration    16          0.612              1.921              2.913
 Vibration    17          0.619              1.899              2.631
 Vibration    18          0.626              1.877              2.415
 Vibration    19          0.632              1.858              2.258
 Vibration    20          0.636              1.847              2.180
 Vibration    21          0.646              1.814              1.979
 Vibration    22          0.648              1.809              1.948
 Vibration    23          0.670              1.740              1.639
 Vibration    24          0.673              1.733              1.612
 Vibration    25          0.681              1.707              1.522
 Vibration    26          0.694              1.670              1.407
 Vibration    27          0.695              1.666              1.394
 Vibration    28          0.702              1.647              1.341
 Vibration    29          0.716              1.607              1.239
 Vibration    30          0.725              1.580              1.176
 Vibration    31          0.731              1.565              1.145
 Vibration    32          0.741              1.538              1.088
 Vibration    33          0.762              1.481              0.981
 Vibration    34          0.771              1.457              0.940
 Vibration    35          0.778              1.438              0.909
 Vibration    36          0.783              1.425              0.890
 Vibration    37          0.838              1.290              0.705
 Vibration    38          0.849              1.264              0.674
 Vibration    39          0.880              1.195              0.599
 Vibration    40          0.954              1.041              0.457
 Vibration    41          0.979              0.992              0.418

 Optimization completed.
    -- Stationary point found.
 Normal termination of Gaussian 16 at Thu Jun  3 01:17:18 2021.
